
                                 *****************
                                 * O   R   C   A *
                                 *****************

                                            #,                                       
                                            ###                                      
                                            ####                                     
                                            #####                                    
                                            ######                                   
                                           ########,                                 
                                     ,,################,,,,,                         
                               ,,#################################,,                 
                          ,,##########################################,,             
                       ,#########################################, ''#####,          
                    ,#############################################,,   '####,        
                  ,##################################################,,,,####,       
                ,###########''''           ''''###############################       
              ,#####''   ,,,,##########,,,,          '''####'''          '####       
            ,##' ,,,,###########################,,,                        '##       
           ' ,,###''''                  '''############,,,                           
         ,,##''                                '''############,,,,        ,,,,,,###''
      ,#''                                            '''#######################'''  
     '                                                          ''''####''''         
             ,#######,   #######,   ,#######,      ##                                
            ,#'     '#,  ##    ##  ,#'     '#,    #''#        ######   ,####,        
            ##       ##  ##   ,#'  ##            #'  '#       #        #'  '#        
            ##       ##  #######   ##           ,######,      #####,   #    #        
            '#,     ,#'  ##    ##  '#,     ,#' ,#      #,         ##   #,  ,#        
             '#######'   ##     ##  '#######'  #'      '#     #####' # '####'        



                  #######################################################
                  #                        -***-                        #
                  #          Department of theory and spectroscopy      #
                  #    Directorship and core code : Frank Neese         #
                  #        Max Planck Institute fuer Kohlenforschung    #
                  #                Kaiser Wilhelm Platz 1               #
                  #                 D-45470 Muelheim/Ruhr               #
                  #                      Germany                        #
                  #                                                     #
                  #                  All rights reserved                #
                  #                        -***-                        #
                  #######################################################



                         Program Version 5.0.4 -  RELEASE  -

 With contributions from (in alphabetic order):
   Daniel Aravena         : Magnetic Suceptibility
   Michael Atanasov       : Ab Initio Ligand Field Theory (pilot matlab implementation)
   Alexander A. Auer      : GIAO ZORA, VPT2 properties, NMR spectrum
   Ute Becker             : Parallelization
   Giovanni Bistoni       : ED, misc. LED, open-shell LED, HFLD
   Martin Brehm           : Molecular dynamics
   Dmytro Bykov           : SCF Hessian
   Vijay G. Chilkuri      : MRCI spin determinant printing, contributions to CSF-ICE
   Dipayan Datta          : RHF DLPNO-CCSD density
   Achintya Kumar Dutta   : EOM-CC, STEOM-CC
   Dmitry Ganyushin       : Spin-Orbit,Spin-Spin,Magnetic field MRCI
   Miquel Garcia          : C-PCM and meta-GGA Hessian, CC/C-PCM, Gaussian charge scheme
   Yang Guo               : DLPNO-NEVPT2, F12-NEVPT2, CIM, IAO-localization
   Andreas Hansen         : Spin unrestricted coupled pair/coupled cluster methods
   Benjamin Helmich-Paris : MC-RPA, TRAH-SCF, COSX integrals
   Lee Huntington         : MR-EOM, pCC
   Robert Izsak           : Overlap fitted RIJCOSX, COSX-SCS-MP3, EOM
   Marcus Kettner         : VPT2
   Christian Kollmar      : KDIIS, OOCD, Brueckner-CCSD(T), CCSD density, CASPT2, CASPT2-K
   Simone Kossmann        : Meta GGA functionals, TD-DFT gradient, OOMP2, MP2 Hessian
   Martin Krupicka        : Initial AUTO-CI
   Lucas Lang             : DCDCAS
   Marvin Lechner         : AUTO-CI (C++ implementation), FIC-MRCC
   Dagmar Lenk            : GEPOL surface, SMD
   Dimitrios Liakos       : Extrapolation schemes; Compound Job, initial MDCI parallelization
   Dimitrios Manganas     : Further ROCIS development; embedding schemes
   Dimitrios Pantazis     : SARC Basis sets
   Anastasios Papadopoulos: AUTO-CI, single reference methods and gradients
   Taras Petrenko         : DFT Hessian,TD-DFT gradient, ASA, ECA, R-Raman, ABS, FL, XAS/XES, NRVS
   Peter Pinski           : DLPNO-MP2, DLPNO-MP2 Gradient
   Christoph Reimann      : Effective Core Potentials
   Marius Retegan         : Local ZFS, SOC
   Christoph Riplinger    : Optimizer, TS searches, QM/MM, DLPNO-CCSD(T), (RO)-DLPNO pert. Triples
   Tobias Risthaus        : Range-separated hybrids, TD-DFT gradient, RPA, STAB
   Michael Roemelt        : Original ROCIS implementation
   Masaaki Saitow         : Open-shell DLPNO-CCSD energy and density
   Barbara Sandhoefer     : DKH picture change effects
   Avijit Sen             : IP-ROCIS
   Kantharuban Sivalingam : CASSCF convergence, NEVPT2, FIC-MRCI
   Bernardo de Souza      : ESD, SOC TD-DFT
   Georgi Stoychev        : AutoAux, RI-MP2 NMR, DLPNO-MP2 response
   Willem Van den Heuvel  : Paramagnetic NMR
   Boris Wezisla          : Elementary symmetry handling
   Frank Wennmohs         : Technical directorship


 We gratefully acknowledge several colleagues who have allowed us to
 interface, adapt or use parts of their codes:
   Stefan Grimme, W. Hujo, H. Kruse, P. Pracht,  : VdW corrections, initial TS optimization,
                  C. Bannwarth, S. Ehlert          DFT functionals, gCP, sTDA/sTD-DF
   Ed Valeev, F. Pavosevic, A. Kumar             : LibInt (2-el integral package), F12 methods
   Garnet Chan, S. Sharma, J. Yang, R. Olivares  : DMRG
   Ulf Ekstrom                                   : XCFun DFT Library
   Mihaly Kallay                                 : mrcc  (arbitrary order and MRCC methods)
   Jiri Pittner, Ondrej Demel                    : Mk-CCSD
   Frank Weinhold                                : gennbo (NPA and NBO analysis)
   Christopher J. Cramer and Donald G. Truhlar   : smd solvation model
   Lars Goerigk                                  : TD-DFT with DH, B97 family of functionals
   V. Asgeirsson, H. Jonsson                     : NEB implementation
   FAccTs GmbH                                   : IRC, NEB, NEB-TS, DLPNO-Multilevel, CI-OPT
                                                   MM, QMMM, 2- and 3-layer-ONIOM, Crystal-QMMM,
                                                   LR-CPCM, SF, NACMEs, symmetry and pop. for TD-DFT,
                                                   nearIR, NL-DFT gradient (VV10), updates on ESD,
                                                   ML-optimized integration grids
   S Lehtola, MJT Oliveira, MAL Marques          : LibXC Library
   Liviu Ungur et al                             : ANISO software


 Your calculation uses the libint2 library for the computation of 2-el integrals
 For citations please refer to: http://libint.valeyev.net

 Your ORCA version has been built with support for libXC version: 5.1.0
 For citations please refer to: https://tddft.org/programs/libxc/

 This ORCA versions uses:
   CBLAS   interface :  Fast vector & matrix operations
   LAPACKE interface :  Fast linear algebra routines
   Shared memory     :  Shared parallel matrices


================================================================================

cite the ECPs for Sb [Def2-ECP] as follows:
Ce-Yb(ecp-28): M. Dolg, H. Stoll, H.Preuss, J. Chem. Phys., 1989, 90, 1730-1734.
Y-Cd(ecp-28), Hf-Hg(ecp-46): D. Andrae,U. Haeussermann, M. Dolg, H. Stoll, H. Preuss, Theor. Chim. Acta, 1990, 77, 123-141.
In-Sb(ecp-28), Tl-Bi(ecp-46): B. Metz, H. Stoll, M. Dolg, J. Chem. Phys., 2000, 113, 2563-2569.
Te-Xe(ecp-28), Po-Rn(ecp-46): K. A. Peterson, D. Figgen, E. Goll, H. Stoll, M. Dolg, J. Chem. Phys., 2003, 119, 11113-11123.
Rb(ecp-28), Cs(ecp-46): T. Leininger, A. Nicklass, W. Kuechle, H. Stoll, M. Dolg, A. Bergner, Chem. Phys. Lett., 1996, 255, 274-280.
Sr(ecp-28), Ba(ecp-46): M. Kaupp, P. V. Schleyer, H. Stoll and H. Preuss, J. Chem. Phys., 1991, 94, 1360-1366.
La(ecp-46): M. Dolg, H. Stoll, A. Savin, H. Preuss, Theor. Chim. Acta, 1989, 75, 173-194.
Lu(ecp-28): X. Cao, M. Dolg, J. Chem. Phys., 2001, 115, 7348-7355.

ECP parameters for Sb [Def2-ECP] have been obtained from:
TURBOMOLE (7.0.2)

----- Orbital basis set information -----
Your calculation utilizes the basis: def2-TZVP
   F. Weigend and R. Ahlrichs, Phys. Chem. Chem. Phys. 7, 3297 (2005).

----- AuxJ basis set information -----
Your calculation utilizes the auxiliary basis: def2/J
   F. Weigend, Phys. Chem. Chem. Phys. 8, 1057 (2006).

================================================================================
                                        WARNINGS
                       Please study these warnings very carefully!
================================================================================


WARNING: Geometry Optimization
  ===> : Switching off AutoStart
         For restart on a previous wavefunction, please use MOREAD

INFO   : the flag for use of the SHARK integral package has been found!

================================================================================
                                       INPUT FILE
================================================================================
NAME = SbCl5_opt.inp
|  1> ! PBE def2-TZVP Opt
|  2> 
|  3> * xyz 0 1
|  4> Sb  0.0000  0.0000  0.0000  # Antimony (Sb)
|  5> Cl  0.0000  2.2770  0.0000  # Equatorial Chlorine (Cl1) 
|  6> Cl  1.9719 -1.1385  0.0000  # Equatorial Chlorine (Cl2)
|  7> Cl -1.9719 -1.1385  0.0000  # Equatorial Chlorine (Cl3)
|  8> Cl  0.0000  0.0000  2.3380  # Axial Chlorine (Cl4)
|  9> Cl  0.0000  0.0000 -2.3380  # Axial Chlorine (Cl5)
| 10> *
| 11> 
| 12>                          ****END OF INPUT****
================================================================================

                       *****************************
                       * Geometry Optimization Run *
                       *****************************

Geometry optimization settings:
Update method            Update   .... BFGS
Choice of coordinates    CoordSys .... Z-matrix Internals
Initial Hessian          InHess   .... Almoef's Model

Convergence Tolerances:
Energy Change            TolE     ....  5.0000e-06 Eh
Max. Gradient            TolMAXG  ....  3.0000e-04 Eh/bohr
RMS Gradient             TolRMSG  ....  1.0000e-04 Eh/bohr
Max. Displacement        TolMAXD  ....  4.0000e-03 bohr
RMS Displacement         TolRMSD  ....  2.0000e-03 bohr
Strict Convergence                ....  False
------------------------------------------------------------------------------
                        ORCA OPTIMIZATION COORDINATE SETUP
------------------------------------------------------------------------------

The optimization will be done in new redundant internal coordinates
Making redundant internal coordinates   ...  (new redundants) done
Evaluating the initial hessian          ...  (Almloef) done
Evaluating the coordinates              ...  done
Calculating the B-matrix                .... done
Calculating the G-matrix                .... done
Diagonalizing the G-matrix              .... done
The first mode is                       ....    2
The number of degrees of freedom        ....   12

    -----------------------------------------------------------------
                    Redundant Internal Coordinates


    -----------------------------------------------------------------
         Definition                    Initial Value    Approx d2E/dq
    -----------------------------------------------------------------
      1. B(Cl  1,Sb  0)                  2.2770         0.261589   
      2. B(Cl  2,Sb  0)                  2.2770         0.261623   
      3. B(Cl  3,Sb  0)                  2.2770         0.261623   
      4. B(Cl  4,Sb  0)                  2.3380         0.209073   
      5. B(Cl  5,Sb  0)                  2.3380         0.209073   
      6. A(Cl  1,Sb  0,Cl  3)          120.0005         0.402849   
      7. A(Cl  2,Sb  0,Cl  3)          119.9990         0.402858   
      8. A(Cl  1,Sb  0,Cl  4)           90.0000         0.387319   
      9. A(Cl  2,Sb  0,Cl  4)           90.0000         0.387327   
     10. A(Cl  3,Sb  0,Cl  4)           90.0000         0.387327   
     11. A(Cl  1,Sb  0,Cl  5)           90.0000         0.387319   
     12. A(Cl  2,Sb  0,Cl  5)           90.0000         0.387327   
     13. A(Cl  3,Sb  0,Cl  5)           90.0000         0.387327   
     14. A(Cl  1,Sb  0,Cl  2)          120.0005         0.402849   
    -----------------------------------------------------------------

Number of atoms                         .... 6
Number of degrees of freedom            .... 14

         *************************************************************
         *                GEOMETRY OPTIMIZATION CYCLE   1            *
         *************************************************************
---------------------------------
CARTESIAN COORDINATES (ANGSTROEM)
---------------------------------
  Sb     0.000000    0.000000    0.000000
  Cl     0.000000    2.277000    0.000000
  Cl     1.971900   -1.138500    0.000000
  Cl    -1.971900   -1.138500    0.000000
  Cl     0.000000    0.000000    2.338000
  Cl     0.000000    0.000000   -2.338000

----------------------------
CARTESIAN COORDINATES (A.U.)
----------------------------
  NO LB      ZA    FRAG     MASS         X           Y           Z
   0 Sb   23.0000*   0   121.750    0.000000    0.000000    0.000000
   1 Cl   17.0000    0    35.453    0.000000    4.302906    0.000000
   2 Cl   17.0000    0    35.453    3.726351   -2.151453    0.000000
   3 Cl   17.0000    0    35.453   -3.726351   -2.151453    0.000000
   4 Cl   17.0000    0    35.453    0.000000    0.000000    4.418180
   5 Cl   17.0000    0    35.453    0.000000    0.000000   -4.418180
* core charge reduced due to ECP

--------------------------------
INTERNAL COORDINATES (ANGSTROEM)
--------------------------------
 Sb     0   0   0     0.000000000000     0.00000000     0.00000000
 Cl     1   0   0     2.277000000000     0.00000000     0.00000000
 Cl     1   2   0     2.276965493810   120.00050131     0.00000000
 Cl     1   2   3     2.276965493810   120.00050131   180.00000121
 Cl     1   2   3     2.338000000000    90.00000000    90.00000000
 Cl     1   2   3     2.338000000000    90.00000000   270.00000000

---------------------------
INTERNAL COORDINATES (A.U.)
---------------------------
 Sb     0   0   0     0.000000000000     0.00000000     0.00000000
 Cl     1   0   0     4.302906406939     0.00000000     0.00000000
 Cl     1   2   0     4.302841199689   120.00050131     0.00000000
 Cl     1   2   3     4.302841199689   120.00050131   180.00000121
 Cl     1   2   3     4.418179701108    90.00000000    90.00000000
 Cl     1   2   3     4.418179701108    90.00000000   270.00000000

---------------------
BASIS SET INFORMATION
---------------------
There are 2 groups of distinct atoms

 Group   1 Type Sb  : 10s9p8d2f contracted to 6s5p3d2f pattern {421111/33111/611/11}
 Group   2 Type Cl  : 14s9p3d1f contracted to 5s5p2d1f pattern {73211/51111/21/1}

Atom   0Sb   basis set group =>   1
Atom   1Cl   basis set group =>   2
Atom   2Cl   basis set group =>   2
Atom   3Cl   basis set group =>   2
Atom   4Cl   basis set group =>   2
Atom   5Cl   basis set group =>   2
---------------------------------
AUXILIARY/J BASIS SET INFORMATION
---------------------------------
There are 2 groups of distinct atoms

 Group   1 Type Sb  : 11s5p5d3f1g contracted to 8s4p3d2f1g pattern {41111111/2111/311/21/1}
 Group   2 Type Cl  : 14s5p5d2f1g contracted to 8s4p3d1f1g pattern {71111111/2111/311/2/1}

Atom   0Sb   basis set group =>   1
Atom   1Cl   basis set group =>   2
Atom   2Cl   basis set group =>   2
Atom   3Cl   basis set group =>   2
Atom   4Cl   basis set group =>   2
Atom   5Cl   basis set group =>   2
-------------------------
ECP PARAMETER INFORMATION
-------------------------

 Group 1, Type Sb ECP Def2-ECP (replacing 28 core electrons, lmax=3)

Atom   0Sb   ECP group =>   1

------------------------------------------------------------------------------
                           ORCA GTO INTEGRAL CALCULATION
                           -- RI-GTO INTEGRALS CHOSEN --
------------------------------------------------------------------------------
------------------------------------------------------------------------------
                   ___                                                        
                  /   \      - P O W E R E D   B Y -                         
                 /     \                                                     
                 |  |  |   _    _      __       _____    __    __             
                 |  |  |  | |  | |    /  \     |  _  \  |  |  /  |          
                  \  \/   | |  | |   /    \    | | | |  |  | /  /          
                 / \  \   | |__| |  /  /\  \   | |_| |  |  |/  /          
                |  |  |   |  __  | /  /__\  \  |    /   |      \           
                |  |  |   | |  | | |   __   |  |    \   |  |\   \          
                \     /   | |  | | |  |  |  |  | |\  \  |  | \   \       
                 \___/    |_|  |_| |__|  |__|  |_| \__\ |__|  \__/        
                                                                              
                      - O R C A' S   B I G   F R I E N D -                    
                                      &                                       
                       - I N T E G R A L  F E E D E R -                       
                                                                              
 v1 FN, 2020, v2 2021                                                         
------------------------------------------------------------------------------


Reading SHARK input file SbCl5_opt.SHARKINP.tmp ... ok
----------------------
SHARK INTEGRAL PACKAGE
----------------------

Number of atoms                             ...      6
Number of basis functions                   ...    235
Number of shells                            ...     81
Maximum angular momentum                    ...      3
Integral batch strategy                     ... SHARK/LIBINT Hybrid
RI-J (if used) integral strategy            ... SPLIT-RIJ (Revised 2003 algorithm where possible)
Printlevel                                  ...      1
Contraction scheme used                     ... SEGMENTED contraction
Coulomb Range Separation                    ... NOT USED
Exchange Range Separation                   ... NOT USED
Finite Nucleus Model                        ... NOT USED
Auxiliary Coulomb fitting basis             ... AVAILABLE
   # of basis functions in Aux-J            ...    313
   # of shells in Aux-J                     ...    103
   Maximum angular momentum in Aux-J        ...      4
Auxiliary J/K fitting basis                 ... NOT available
Auxiliary Correlation fitting basis         ... NOT available
Auxiliary 'external' fitting basis          ... NOT available
Integral threshold                          ...     2.500000e-11
Primitive cut-off                           ...     2.500000e-12
Primitive pair pre-selection threshold      ...     2.500000e-12

Calculating pre-screening integrals         ... done (  0.1 sec) Dimension = 81
Organizing shell pair data                  ... done (  0.1 sec)
Shell pair information
Total number of shell pairs                 ...      3321
Shell pairs after pre-screening             ...      2777
Total number of primitive shell pairs       ...     13738
Primitive shell pairs kept                  ...      7729
          la=0 lb=0:    354 shell pairs
          la=1 lb=0:    714 shell pairs
          la=1 lb=1:    386 shell pairs
          la=2 lb=0:    355 shell pairs
          la=2 lb=1:    360 shell pairs
          la=2 lb=2:     90 shell pairs
          la=3 lb=0:    199 shell pairs
          la=3 lb=1:    200 shell pairs
          la=3 lb=2:     91 shell pairs
          la=3 lb=3:     28 shell pairs

Calculating one electron integrals          ... done (  0.0 sec)
Calculating ECP integrals                   ... done (  0.2 sec)
Calculating RI/J V-Matrix + Cholesky decomp.... done (  0.0 sec)
Calculating Nuclear repulsion               ... done (  0.0 sec) ENN=    879.806121920882 Eh

SHARK setup successfully completed in   0.6 seconds

Maximum memory used throughout the entire GTOINT-calculation: 89.3 MB
-------------------------------------------------------------------------------
                                 ORCA SCF
-------------------------------------------------------------------------------

------------
SCF SETTINGS
------------
Hamiltonian:
 Density Functional     Method          .... DFT(GTOs)
 Exchange Functional    Exchange        .... PBE
   PBE kappa parameter   XKappa         ....  0.804000
   PBE mue parameter    XMuePBE         ....  0.219520
 Correlation Functional Correlation     .... PBE
   PBE beta parameter  CBetaPBE         ....  0.066725
 LDA part of GGA corr.  LDAOpt          .... PW91-LDA
 Gradients option       PostSCFGGA      .... off
   Density functional embedding theory  .... OFF
   NL short-range parameter             ....  6.400000
 RI-approximation to the Coulomb term is turned on
   Number of AuxJ basis functions       .... 313


General Settings:
 Integral files         IntName         .... SbCl5_opt
 Hartree-Fock type      HFTyp           .... RHF
 Total Charge           Charge          ....    0
 Multiplicity           Mult            ....    1
 Number of Electrons    NEL             ....  108
 Basis Dimension        Dim             ....  235
 Nuclear Repulsion      ENuc            ....    879.8061219209 Eh

Convergence Acceleration:
 DIIS                   CNVDIIS         .... on
   Start iteration      DIISMaxIt       ....    12
   Startup error        DIISStart       ....  0.200000
   # of expansion vecs  DIISMaxEq       ....     5
   Bias factor          DIISBfac        ....   1.050
   Max. coefficient     DIISMaxC        ....  10.000
 Trust-Rad. Augm. Hess. CNVTRAH         .... auto
   Auto Start mean grad. ratio tolernc. ....  1.125000
   Auto Start start iteration           ....    20
   Auto Start num. interpolation iter.  ....    10
   Max. Number of Micro iterations      ....    16
   Max. Number of Macro iterations      .... Maxiter - #DIIS iter
   Number of Davidson start vectors     ....     2
   Converg. threshold I  (grad. norm)   ....   1.000e-05
   Converg. threshold II (energy diff.) ....   1.000e-08
   Grad. Scal. Fac. for Micro threshold ....   0.100
   Minimum threshold for Micro iter.    ....   0.010
   NR start threshold (gradient norm)   ....   0.001
   Initial trust radius                 ....   0.400
   Minimum AH scaling param. (alpha)    ....   1.000
   Maximum AH scaling param. (alpha)    .... 1000.000
   Orbital update algorithm             .... Taylor
   White noise on init. David. guess    .... on
   Maximum white noise                  ....   0.010
   Quad. conv. algorithm                .... NR
 SOSCF                  CNVSOSCF        .... on
   Start iteration      SOSCFMaxIt      ....   150
   Startup grad/error   SOSCFStart      ....  0.003300
 Level Shifting         CNVShift        .... on
   Level shift para.    LevelShift      ....    0.2500
   Turn off err/grad.   ShiftErr        ....    0.0010
 Zerner damping         CNVZerner       .... off
 Static damping         CNVDamp         .... on
   Fraction old density DampFac         ....    0.7000
   Max. Damping (<1)    DampMax         ....    0.9800
   Min. Damping (>=0)   DampMin         ....    0.0000
   Turn off err/grad.   DampErr         ....    0.1000
 Fernandez-Rico         CNVRico         .... off

SCF Procedure:
 Maximum # iterations   MaxIter         ....   125
 SCF integral mode      SCFMode         .... Direct
   Integral package                     .... SHARK and LIBINT hybrid scheme
 Reset frequency        DirectResetFreq ....    20
 Integral Threshold     Thresh          ....  2.500e-11 Eh
 Primitive CutOff       TCut            ....  2.500e-12 Eh

Convergence Tolerance:
 Convergence Check Mode ConvCheckMode   .... Total+1el-Energy
 Convergence forced     ConvForced      .... 0
 Energy Change          TolE            ....  1.000e-08 Eh
 1-El. energy change                    ....  1.000e-05 Eh
 Orbital Gradient       TolG            ....  1.000e-05
 Orbital Rotation angle TolX            ....  1.000e-05
 DIIS Error             TolErr          ....  5.000e-07


Diagonalization of the overlap matrix:
Smallest eigenvalue                        ... 4.522e-03
Time for diagonalization                   ...    0.006 sec
Threshold for overlap eigenvalues          ... 1.000e-08
Number of eigenvalues below threshold      ... 0
Time for construction of square roots      ...    0.005 sec
Total time needed                          ...    0.011 sec

Time for model grid setup =    0.146 sec

------------------------------
INITIAL GUESS: MODEL POTENTIAL
------------------------------
Loading Hartree-Fock densities                     ... done
  calling C:\Users\sandi\Downloads\DFT\orca_files\orca\orca SbCl5_opt_atom51.inp > SbCl5_opt_atom51.out in order to generate an atomic fitting density for atom 0 (Sb with ECP) on-the-fly... 
    atom 0 (Sb), assumed electronic state with S=4: 1s2 2s2 2p6 3s2 3p6 4s2 3d10 4p6 5s2 4d10 5p3           ... done
Calculating cut-offs                               ... done
Initializing the effective Hamiltonian             ... done
Setting up the integral package (SHARK)            ... done
Starting the Coulomb interaction                   ... done (   0.3 sec)
Reading the grid                                   ... done
Mapping shells                                     ... done
Starting the XC term evaluation                    ... done (   0.4 sec)
  promolecular density results
     # of electrons  =    136.000008159
     EX              =   -300.102602479
     EC              =     -6.114201990
     EX+EC           =   -306.216804469
Transforming the Hamiltonian                       ... done (   0.0 sec)
Diagonalizing the Hamiltonian                      ... done (   0.0 sec)
Back transforming the eigenvectors                 ... done (   0.0 sec)
Now organizing SCF variables                       ... done
                      ------------------
                      INITIAL GUESS DONE (   2.7 sec)
                      ------------------
-------------------
DFT GRID GENERATION
-------------------

General Integration Accuracy     IntAcc      ... 4.388
Radial Grid Type                 RadialGrid  ... OptM3 with GC (2021)
Angular Grid (max. ang.)         AngularGrid ... 4 (Lebedev-302)
Angular grid pruning method      GridPruning ... 4 (adaptive)
Weight generation scheme         WeightScheme... Becke
Basis function cutoff            BFCut       ... 1.0000e-11
Integration weight cutoff        WCut        ... 1.0000e-14
Angular grids for H and He will be reduced by one unit
Partially contracted basis set               ... off
Rotationally invariant grid construction     ... off

Total number of grid points                  ...    48460
Total number of batches                      ...      761
Average number of points per batch           ...       63
Average number of grid points per atom       ...     8077
Time for grid setup =    0.694 sec

--------------
SCF ITERATIONS
--------------
ITER       Energy         Delta-E        Max-DP      RMS-DP      [F,P]     Damp
               ***  Starting incremental Fock matrix formation  ***
  0  -2540.4180917299   0.000000000000 0.15249194  0.00123023  0.5252639 0.7000
  1  -2540.4579973852  -0.039905655291 0.10609570  0.00084825  0.3639740 0.7000
  2  -2540.4738499779  -0.015852592759 0.04269030  0.00038471  0.2507340 0.7000
                               ***Turning on DIIS***
  3  -2540.4835053900  -0.009655412069 0.01361670  0.00016628  0.1718211 0.7000
  4  -2540.4906007380  -0.007095348006 0.01146033  0.00009519  0.1181874 0.7000
  5  -2540.4955205006  -0.004919762591 0.02671966  0.00021184  0.0827992 0.0000
                      *** Initiating the SOSCF procedure ***
                           *** Shutting down DIIS ***
                      *** Re-Reading the Fockian *** 
                      *** Removing any level shift *** 
ITER      Energy       Delta-E        Grad      Rot      Max-DP    RMS-DP
  6  -2540.50688480  -0.0113643016  0.000473  0.000473  0.002318  0.000046
               *** Restarting incremental Fock matrix formation ***
  7  -2540.50688014   0.0000046652  0.000913  0.002408  0.007772  0.000076
  8  -2540.50683491   0.0000452245  0.002104  0.001805  0.005968  0.000053
  9  -2540.50689462  -0.0000597112  0.000149  0.000284  0.000814  0.000015
 10  -2540.50689439   0.0000002320  0.000171  0.000229  0.000440  0.000008
 11  -2540.50689544  -0.0000010495  0.000035  0.000227  0.000153  0.000003
 12  -2540.50689539   0.0000000550  0.000075  0.000157  0.000128  0.000002
 13  -2540.50689546  -0.0000000706  0.000005  0.000002  0.000022  0.000000
 14  -2540.50689546  -0.0000000061  0.000004  0.000001  0.000010  0.000000
                  ***Gradient check signals convergence***
              ***Rediagonalizing the Fockian in SOSCF/NRSCF***

               *****************************************************
               *                     SUCCESS                       *
               *           SCF CONVERGED AFTER  15 CYCLES          *
               *****************************************************


----------------
TOTAL SCF ENERGY
----------------

Total Energy       :        -2540.50689545 Eh          -69130.70716 eV

Components:
Nuclear Repulsion  :          879.80612192 Eh           23940.74170 eV
Electronic Energy  :        -3420.31301737 Eh          -93071.44886 eV
One Electron Energy:        -5352.01597987 Eh         -145635.75879 eV
Two Electron Energy:         1931.70296250 Eh           52564.30993 eV

Virial components:
Potential Energy   :        -4930.58982598 Eh         -134168.17014 eV
Kinetic Energy     :         2390.08293053 Eh           65037.46298 eV
Virial Ratio       :            2.06293671


DFT components:
N(Alpha)           :       53.999992233941 electrons
N(Beta)            :       53.999992233941 electrons
N(Total)           :      107.999984467882 electrons
E(X)               :     -155.474328784232 Eh       
E(C)               :       -4.400529917218 Eh       
E(XC)              :     -159.874858701450 Eh       
DFET-embed. en.    :        0.000000000000 Eh       

---------------
SCF CONVERGENCE
---------------

  Last Energy change         ...    1.1798e-08  Tolerance :   1.0000e-08
  Last MAX-Density change    ...    4.4959e-07  Tolerance :   1.0000e-07
  Last RMS-Density change    ...    7.8321e-09  Tolerance :   5.0000e-09
  Last Orbital Gradient      ...    9.1733e-08  Tolerance :   1.0000e-05
  Last Orbital Rotation      ...    1.5966e-07  Tolerance :   1.0000e-05

             **** THE GBW FILE WAS UPDATED (SbCl5_opt.gbw) ****
             **** DENSITY SbCl5_opt.scfp WAS UPDATED ****
             **** ENERGY FILE WAS UPDATED (SbCl5_opt.en.tmp) ****
             **** THE GBW FILE WAS UPDATED (SbCl5_opt.gbw) ****
             **** DENSITY SbCl5_opt.scfp WAS UPDATED ****
----------------
ORBITAL ENERGIES
----------------

  NO   OCC          E(Eh)            E(eV) 
   0   2.0000    -100.694353     -2740.0327 
   1   2.0000    -100.694353     -2740.0326 
   2   2.0000    -100.694351     -2740.0326 
   3   2.0000    -100.670019     -2739.3705 
   4   2.0000    -100.670016     -2739.3704 
   5   2.0000      -9.209213      -250.5954 
   6   2.0000      -9.209212      -250.5954 
   7   2.0000      -9.209209      -250.5953 
   8   2.0000      -9.184923      -249.9345 
   9   2.0000      -9.184918      -249.9343 
  10   2.0000      -7.031359      -191.3330 
  11   2.0000      -7.031357      -191.3330 
  12   2.0000      -7.031349      -191.3327 
  13   2.0000      -7.023491      -191.1189 
  14   2.0000      -7.023490      -191.1189 
  15   2.0000      -7.023481      -191.1186 
  16   2.0000      -7.022248      -191.0851 
  17   2.0000      -7.022246      -191.0850 
  18   2.0000      -7.022245      -191.0850 
  19   2.0000      -7.006880      -190.6669 
  20   2.0000      -7.006874      -190.6667 
  21   2.0000      -6.998672      -190.4436 
  22   2.0000      -6.998672      -190.4436 
  23   2.0000      -6.998670      -190.4435 
  24   2.0000      -6.998670      -190.4435 
  25   2.0000      -5.631336      -153.2364 
  26   2.0000      -3.899854      -106.1204 
  27   2.0000      -3.899852      -106.1204 
  28   2.0000      -3.897914      -106.0676 
  29   2.0000      -1.341391       -36.5011 
  30   2.0000      -1.341382       -36.5009 
  31   2.0000      -1.340597       -36.4795 
  32   2.0000      -1.337665       -36.3997 
  33   2.0000      -1.337649       -36.3993 
  34   2.0000      -0.827141       -22.5076 
  35   2.0000      -0.780879       -21.2488 
  36   2.0000      -0.780875       -21.2487 
  37   2.0000      -0.761501       -20.7215 
  38   2.0000      -0.744470       -20.2581 
  39   2.0000      -0.564405       -15.3582 
  40   2.0000      -0.423653       -11.5282 
  41   2.0000      -0.423651       -11.5281 
  42   2.0000      -0.417424       -11.3587 
  43   2.0000      -0.343715        -9.3529 
  44   2.0000      -0.343713        -9.3529 
  45   2.0000      -0.333923        -9.0865 
  46   2.0000      -0.333921        -9.0864 
  47   2.0000      -0.327302        -8.9063 
  48   2.0000      -0.321418        -8.7462 
  49   2.0000      -0.310364        -8.4454 
  50   2.0000      -0.299509        -8.1501 
  51   2.0000      -0.299507        -8.1500 
  52   2.0000      -0.284350        -7.7376 
  53   2.0000      -0.284348        -7.7375 
  54   0.0000      -0.185287        -5.0419 
  55   0.0000      -0.071129        -1.9355 
  56   0.0000      -0.071127        -1.9355 
  57   0.0000      -0.027388        -0.7453 
  58   0.0000       0.079380         2.1600 
  59   0.0000       0.079389         2.1603 
  60   0.0000       0.087142         2.3713 
  61   0.0000       0.108217         2.9447 
  62   0.0000       0.108219         2.9448 
  63   0.0000       0.123531         3.3614 
  64   0.0000       0.151842         4.1318 
  65   0.0000       0.151845         4.1319 
  66   0.0000       0.192828         5.2471 
  67   0.0000       0.231110         6.2888 
  68   0.0000       0.236218         6.4278 
  69   0.0000       0.244059         6.6412 
  70   0.0000       0.244062         6.6413 
  71   0.0000       0.258243         7.0272 
  72   0.0000       0.273654         7.4465 
  73   0.0000       0.273667         7.4468 
  74   0.0000       0.276080         7.5125 
  75   0.0000       0.276081         7.5126 
  76   0.0000       0.276161         7.5147 
  77   0.0000       0.276174         7.5151 
  78   0.0000       0.293448         7.9851 
  79   0.0000       0.309277         8.4158 
  80   0.0000       0.309278         8.4159 
  81   0.0000       0.309996         8.4354 
  82   0.0000       0.310001         8.4355 
  83   0.0000       0.326964         8.8972 
  84   0.0000       0.345154         9.3921 
  85   0.0000       0.355251         9.6669 
  86   0.0000       0.358467         9.7544 
  87   0.0000       0.358471         9.7545 
  88   0.0000       0.374926        10.2023 
  89   0.0000       0.382158        10.3990 
  90   0.0000       0.382159        10.3991 
  91   0.0000       0.398838        10.8529 
  92   0.0000       0.398842        10.8531 
  93   0.0000       0.485892        13.2218 
  94   0.0000       0.485892        13.2218 
  95   0.0000       0.511874        13.9288 
  96   0.0000       0.523189        14.2367 
  97   0.0000       0.523204        14.2371 
  98   0.0000       0.531584        14.4651 
  99   0.0000       0.531606        14.4657 
 100   0.0000       0.533915        14.5286 
 101   0.0000       0.570663        15.5285 
 102   0.0000       0.590998        16.0819 
 103   0.0000       0.609341        16.5810 
 104   0.0000       0.609345        16.5811 
 105   0.0000       0.664207        18.0740 
 106   0.0000       0.664226        18.0745 
 107   0.0000       0.799851        21.7650 
 108   0.0000       0.799857        21.7652 
 109   0.0000       0.805374        21.9153 
 110   0.0000       0.805374        21.9153 
 111   0.0000       0.808244        21.9934 
 112   0.0000       0.861366        23.4390 
 113   0.0000       0.861369        23.4391 
 114   0.0000       0.861913        23.4538 
 115   0.0000       0.870953        23.6998 
 116   0.0000       0.872044        23.7295 
 117   0.0000       1.039160        28.2770 
 118   0.0000       1.081178        29.4203 
 119   0.0000       1.097378        29.8612 
 120   0.0000       1.097385        29.8614 
 121   0.0000       1.183403        32.2020 
 122   0.0000       1.183423        32.2026 
 123   0.0000       1.197375        32.5822 
 124   0.0000       1.197988        32.5989 
 125   0.0000       1.198003        32.5993 
 126   0.0000       1.219078        33.1728 
 127   0.0000       1.602158        43.5969 
 128   0.0000       1.602168        43.5972 
 129   0.0000       1.603236        43.6263 
 130   0.0000       1.603282        43.6275 
 131   0.0000       1.611146        43.8415 
 132   0.0000       1.659089        45.1461 
 133   0.0000       1.659133        45.1473 
 134   0.0000       1.665839        45.3298 
 135   0.0000       1.667302        45.3696 
 136   0.0000       1.667370        45.3714 
 137   0.0000       1.689097        45.9627 
 138   0.0000       1.717295        46.7300 
 139   0.0000       1.749229        47.5989 
 140   0.0000       1.765159        48.0324 
 141   0.0000       1.765174        48.0328 
 142   0.0000       1.772105        48.2214 
 143   0.0000       1.772108        48.2215 
 144   0.0000       1.786541        48.6143 
 145   0.0000       1.786546        48.6144 
 146   0.0000       1.793354        48.7996 
 147   0.0000       1.793364        48.7999 
 148   0.0000       1.799362        48.9631 
 149   0.0000       1.806884        49.1678 
 150   0.0000       1.806897        49.1682 
 151   0.0000       1.822541        49.5939 
 152   0.0000       1.940133        52.7937 
 153   0.0000       1.940145        52.7940 
 154   0.0000       1.942664        52.8626 
 155   0.0000       1.942670        52.8627 
 156   0.0000       1.943183        52.8767 
 157   0.0000       1.954047        53.1723 
 158   0.0000       1.955569        53.2137 
 159   0.0000       1.955576        53.2139 
 160   0.0000       1.964734        53.4631 
 161   0.0000       1.964743        53.4634 
 162   0.0000       1.965421        53.4818 
 163   0.0000       1.965461        53.4829 
 164   0.0000       1.966427        53.5092 
 165   0.0000       1.971620        53.6505 
 166   0.0000       1.978810        53.8461 
 167   0.0000       1.978820        53.8464 
 168   0.0000       1.981698        53.9248 
 169   0.0000       1.981706        53.9250 
 170   0.0000       1.985115        54.0177 
 171   0.0000       1.985381        54.0250 
 172   0.0000       1.988549        54.1112 
 173   0.0000       1.992749        54.2254 
 174   0.0000       1.994297        54.2676 
 175   0.0000       1.994297        54.2676 
 176   0.0000       2.009027        54.6684 
 177   0.0000       2.009947        54.6934 
 178   0.0000       2.064004        56.1644 
 179   0.0000       2.096741        57.0552 
 180   0.0000       2.096746        57.0554 
 181   0.0000       2.115954        57.5780 
 182   0.0000       2.115956        57.5781 
 183   0.0000       2.122539        57.7572 
 184   0.0000       2.122559        57.7578 
 185   0.0000       2.134140        58.0729 
 186   0.0000       2.140103        58.2352 
 187   0.0000       2.185071        59.4588 
 188   0.0000       2.190091        59.5954 
 189   0.0000       2.190093        59.5955 
 190   0.0000       2.198303        59.8189 
 191   0.0000       2.198324        59.8194 
 192   0.0000       2.215090        60.2757 
 193   0.0000       2.215098        60.2759 
 194   0.0000       2.242295        61.0159 
 195   0.0000       2.396366        65.2084 
 196   0.0000       2.396376        65.2087 
 197   0.0000       2.429952        66.1224 
 198   0.0000       2.467682        67.1490 
 199   0.0000       2.548200        69.3400 
 200   0.0000       2.669393        72.6379 
 201   0.0000       2.669418        72.6386 
 202   0.0000       2.746604        74.7389 
 203   0.0000       2.746623        74.7394 
 204   0.0000       2.750874        74.8551 
 205   0.0000       2.750883        74.8553 
 206   0.0000       2.781158        75.6792 
 207   0.0000       2.889198        78.6191 
 208   0.0000       3.286302        89.4248 
 209   0.0000       3.976397       108.2033 
 210   0.0000      10.478853       285.1441 
 211   0.0000      10.478894       285.1452 
 212   0.0000      10.503563       285.8165 
 213   0.0000      10.503579       285.8169 
 214   0.0000      10.521223       286.2970 
 215   0.0000      10.537235       286.7327 
 216   0.0000      10.537284       286.7341 
 217   0.0000      10.540360       286.8178 
 218   0.0000      10.545687       286.9627 
 219   0.0000      10.545695       286.9630 
 220   0.0000      10.686202       290.7863 
 221   0.0000      10.721262       291.7404 
 222   0.0000      10.818239       294.3792 
 223   0.0000      10.818245       294.3794 
 224   0.0000      10.848783       295.2104 
 225   0.0000      24.658226       670.9844 
 226   0.0000      24.684994       671.7128 
 227   0.0000      24.783346       674.3891 
 228   0.0000      24.783350       674.3892 
 229   0.0000      24.868446       676.7048 
 230   0.0000      39.025088      1061.9266 
 231   0.0000      39.042686      1062.4055 
 232   0.0000      39.042696      1062.4058 
 233   0.0000      40.041339      1089.5802 
 234   0.0000     112.726460      3067.4429 

                    ********************************
                    * MULLIKEN POPULATION ANALYSIS *
                    ********************************

-----------------------
MULLIKEN ATOMIC CHARGES
-----------------------
   0 Sb:    1.028987
   1 Cl:   -0.187377
   2 Cl:   -0.187345
   3 Cl:   -0.187345
   4 Cl:   -0.233460
   5 Cl:   -0.233460
Sum of atomic charges:   -0.0000000

--------------------------------
MULLIKEN REDUCED ORBITAL CHARGES
--------------------------------
  0 Sbs       :     3.302832  s :     3.302832
      pz      :     2.672855  p :     7.896228
      px      :     2.611680
      py      :     2.611694
      dz2     :     2.132666  d :    10.604867
      dxz     :     2.127909
      dyz     :     2.127915
      dx2y2   :     2.108175
      dxy     :     2.108202
      f0      :     0.040387  f :     0.167086
      f+1     :     0.028736
      f-1     :     0.028737
      f+2     :     0.010748
      f-2     :     0.010751
      f+3     :     0.031533
      f-3     :     0.016194
  1 Cls       :     5.956908  s :     5.956908
      pz      :     3.915251  p :    11.190136
      px      :     3.869154
      py      :     3.405731
      dz2     :     0.006863  d :     0.037726
      dxz     :     0.000340
      dyz     :     0.007587
      dx2y2   :     0.015697
      dxy     :     0.007239
      f0      :     0.000230  f :     0.002608
      f+1     :     0.000051
      f-1     :     0.000638
      f+2     :     0.000341
      f-2     :     0.000018
      f+3     :     0.000534
      f-3     :     0.000795
  2 Cls       :     5.956902  s :     5.956902
      pz      :     3.915244  p :    11.190107
      px      :     3.521570
      py      :     3.753293
      dz2     :     0.006862  d :     0.037728
      dxz     :     0.005775
      dyz     :     0.002153
      dx2y2   :     0.009354
      dxy     :     0.013584
      f0      :     0.000230  f :     0.002608
      f+1     :     0.000491
      f-1     :     0.000198
      f+2     :     0.000099
      f-2     :     0.000261
      f+3     :     0.000534
      f-3     :     0.000795
  3 Cls       :     5.956902  s :     5.956902
      pz      :     3.915244  p :    11.190107
      px      :     3.521570
      py      :     3.753293
      dz2     :     0.006862  d :     0.037728
      dxz     :     0.005775
      dyz     :     0.002153
      dx2y2   :     0.009354
      dxy     :     0.013584
      f0      :     0.000230  f :     0.002608
      f+1     :     0.000491
      f-1     :     0.000198
      f+2     :     0.000099
      f-2     :     0.000261
      f+3     :     0.000534
      f-3     :     0.000795
  4 Cls       :     5.957162  s :     5.957162
      pz      :     3.424718  p :    11.241039
      px      :     3.908166
      py      :     3.908155
      dz2     :     0.018645  d :     0.033077
      dxz     :     0.006328
      dyz     :     0.006328
      dx2y2   :     0.000888
      dxy     :     0.000888
      f0      :     0.001168  f :     0.002182
      f+1     :     0.000453
      f-1     :     0.000453
      f+2     :     0.000046
      f-2     :     0.000046
      f+3     :     0.000006
      f-3     :     0.000009
  5 Cls       :     5.957162  s :     5.957162
      pz      :     3.424718  p :    11.241039
      px      :     3.908166
      py      :     3.908155
      dz2     :     0.018645  d :     0.033077
      dxz     :     0.006328
      dyz     :     0.006328
      dx2y2   :     0.000888
      dxy     :     0.000888
      f0      :     0.001168  f :     0.002182
      f+1     :     0.000453
      f-1     :     0.000453
      f+2     :     0.000046
      f-2     :     0.000046
      f+3     :     0.000006
      f-3     :     0.000009


                     *******************************
                     * LOEWDIN POPULATION ANALYSIS *
                     *******************************

----------------------
LOEWDIN ATOMIC CHARGES
----------------------
   0 Sb:   -0.429267
   1 Cl:    0.117782
   2 Cl:    0.117812
   3 Cl:    0.117812
   4 Cl:    0.037930
   5 Cl:    0.037930

-------------------------------
LOEWDIN REDUCED ORBITAL CHARGES
-------------------------------
  0 Sbs       :     3.057572  s :     3.057572
      pz      :     2.848807  p :     8.456209
      px      :     2.803702
      py      :     2.803699
      dz2     :     2.491059  d :    11.483735
      dxz     :     2.207704
      dyz     :     2.207709
      dx2y2   :     2.288629
      dxy     :     2.288633
      f0      :     0.111423  f :     0.431751
      f+1     :     0.072075
      f-1     :     0.072076
      f+2     :     0.022014
      f-2     :     0.022019
      f+3     :     0.065735
      f-3     :     0.066410
  1 Cls       :     5.701280  s :     5.701280
      pz      :     3.868636  p :    11.119204
      px      :     3.816310
      py      :     3.434259
      dz2     :     0.011085  d :     0.057227
      dxz     :     0.000324
      dyz     :     0.009206
      dx2y2   :     0.029590
      dxy     :     0.007023
      f0      :     0.000265  f :     0.004507
      f+1     :     0.000047
      f-1     :     0.001267
      f+2     :     0.000447
      f-2     :     0.000015
      f+3     :     0.000553
      f-3     :     0.001912
  2 Cls       :     5.701263  s :     5.701263
      pz      :     3.868626  p :    11.119186
      px      :     3.529779
      py      :     3.720782
      dz2     :     0.011085  d :     0.057233
      dxz     :     0.006986
      dyz     :     0.002545
      dx2y2   :     0.012666
      dxy     :     0.023951
      f0      :     0.000265  f :     0.004507
      f+1     :     0.000962
      f-1     :     0.000352
      f+2     :     0.000123
      f-2     :     0.000339
      f+3     :     0.000553
      f-3     :     0.001912
  3 Cls       :     5.701263  s :     5.701263
      pz      :     3.868626  p :    11.119186
      px      :     3.529779
      py      :     3.720782
      dz2     :     0.011085  d :     0.057233
      dxz     :     0.006986
      dyz     :     0.002545
      dx2y2   :     0.012666
      dxy     :     0.023951
      f0      :     0.000265  f :     0.004507
      f+1     :     0.000962
      f-1     :     0.000352
      f+2     :     0.000123
      f-2     :     0.000339
      f+3     :     0.000553
      f-3     :     0.001912
  4 Cls       :     5.726850  s :     5.726850
      pz      :     3.445918  p :    11.181542
      px      :     3.867815
      py      :     3.867808
      dz2     :     0.033982  d :     0.049940
      dxz     :     0.006953
      dyz     :     0.006954
      dx2y2   :     0.001025
      dxy     :     0.001025
      f0      :     0.002565  f :     0.003738
      f+1     :     0.000527
      f-1     :     0.000527
      f+2     :     0.000048
      f-2     :     0.000048
      f+3     :     0.000007
      f-3     :     0.000017
  5 Cls       :     5.726850  s :     5.726850
      pz      :     3.445918  p :    11.181542
      px      :     3.867815
      py      :     3.867808
      dz2     :     0.033982  d :     0.049940
      dxz     :     0.006953
      dyz     :     0.006954
      dx2y2   :     0.001025
      dxy     :     0.001025
      f0      :     0.002565  f :     0.003738
      f+1     :     0.000527
      f-1     :     0.000527
      f+2     :     0.000048
      f-2     :     0.000048
      f+3     :     0.000007
      f-3     :     0.000017


                      *****************************
                      * MAYER POPULATION ANALYSIS *
                      *****************************

  NA   - Mulliken gross atomic population
  ZA   - Total nuclear charge
  QA   - Mulliken gross atomic charge
  VA   - Mayer's total valence
  BVA  - Mayer's bonded valence
  FA   - Mayer's free valence

  ATOM       NA         ZA         QA         VA         BVA        FA
  0 Sb    21.9710    23.0000     1.0290     5.0979     5.0979    -0.0000
  1 Cl    17.1874    17.0000    -0.1874     1.2387     1.2387     0.0000
  2 Cl    17.1873    17.0000    -0.1873     1.2387     1.2387    -0.0000
  3 Cl    17.1873    17.0000    -0.1873     1.2387     1.2387    -0.0000
  4 Cl    17.2335    17.0000    -0.2335     1.1801     1.1801     0.0000
  5 Cl    17.2335    17.0000    -0.2335     1.1801     1.1801     0.0000

  Mayer bond orders larger than 0.100000
B(  0-Sb,  1-Cl) :   1.0421 B(  0-Sb,  2-Cl) :   1.0422 B(  0-Sb,  3-Cl) :   1.0422 
B(  0-Sb,  4-Cl) :   0.9857 B(  0-Sb,  5-Cl) :   0.9857 

-------
TIMINGS
-------

Total SCF time: 0 days 0 hours 0 min 17 sec 

Total time                  ....      17.423 sec
Sum of individual times     ....      17.056 sec  ( 97.9%)

Fock matrix formation       ....      13.409 sec  ( 77.0%)
  Split-RI-J                ....       4.356 sec  ( 32.5% of F)
  XC integration            ....       8.969 sec  ( 66.9% of F)
    Basis function eval.    ....       2.696 sec  ( 30.1% of XC)
    Density eval.           ....       2.735 sec  ( 30.5% of XC)
    XC-Functional eval.     ....       0.427 sec  (  4.8% of XC)
    XC-Potential eval.      ....       2.608 sec  ( 29.1% of XC)
Diagonalization             ....       0.089 sec  (  0.5%)
Density matrix formation    ....       0.023 sec  (  0.1%)
Population analysis         ....       0.017 sec  (  0.1%)
Initial guess               ....       2.525 sec  ( 14.5%)
Orbital Transformation      ....       0.000 sec  (  0.0%)
Orbital Orthonormalization  ....       0.000 sec  (  0.0%)
DIIS solution               ....       0.067 sec  (  0.4%)
SOSCF solution              ....       0.086 sec  (  0.5%)
Grid generation             ....       0.840 sec  (  4.8%)

Maximum memory used throughout the entire SCF-calculation: 105.3 MB

-------------------------   --------------------
FINAL SINGLE POINT ENERGY     -2540.506895450984
-------------------------   --------------------

------------------------------------------------------------------------------
                         ORCA SCF GRADIENT CALCULATION
------------------------------------------------------------------------------

Gradient of the Kohn-Sham DFT energy:
Kohn-Sham wavefunction type      ... RKS
Hartree-Fock exchange scaling    ...    0.000
Number of operators              ...    1
Number of atoms                  ...    6
Basis set dimensions             ...  235
Integral neglect threshold       ... 2.5e-11
Integral primitive cutoff        ... 2.5e-12
SHARK Integral package           ... ON

Nuc. rep. gradient       (SHARK) ... done (  0.0 sec)
HCore & Overlap gradient (SHARK) ... done (  0.1 sec)
ECP gradient             (SHARK) ... done (  1.2 sec)
RI-J gradient            (SHARK) ... done (  2.2 sec)
Exchange-correlation gradient    ... done

------------------
CARTESIAN GRADIENT
------------------

   1   Sb  :   -0.000000001   -0.000019081   -0.000000001
   2   Cl  :    0.000000001   -0.018634630   -0.000000001
   3   Cl  :   -0.016151825    0.009330946   -0.000000002
   4   Cl  :    0.016151826    0.009330947   -0.000000002
   5   Cl  :   -0.000000001   -0.000004090   -0.011528079
   6   Cl  :    0.000000000   -0.000004091    0.011528085

Difference to translation invariance:
           :    0.0000000000   -0.0000000000    0.0000000000

Difference to rotation invariance:
           :   -0.0000000025   -0.0000000064   -0.0000000026

Norm of the cartesian gradient     ...    0.0361792653
RMS gradient                       ...    0.0085275346
MAX gradient                       ...    0.0186346303

-------
TIMINGS
-------

Total SCF gradient time            ...        6.372 sec

One electron gradient       ....       1.305 sec  ( 20.5%)
RI-J Coulomb gradient       ....       2.193 sec  ( 34.4%)
XC gradient                 ....       2.759 sec  ( 43.3%)

Maximum memory used throughout the entire SCFGRAD-calculation: 105.4 MB
------------------------------------------------------------------------------
                         ORCA GEOMETRY RELAXATION STEP
------------------------------------------------------------------------------

Reading the OPT-File                    .... done
Getting information on internals        .... done
Copying old internal coords+grads       .... done
Making the new internal coordinates     .... (new redundants).... done
Validating the new internal coordinates .... (new redundants).... done
Calculating the B-matrix                .... done
Calculating the G,G- and P matrices     .... done
Transforming gradient to internals      .... done
Projecting the internal gradient        .... done
Number of atoms                         ....   6
Number of internal coordinates          ....  14
Current Energy                          .... -2540.506895451 Eh
Current gradient norm                   ....     0.036179265 Eh/bohr
Maximum allowed component of the step   ....  0.300
Current trust radius                    ....  0.300
Evaluating the initial hessian          ....  (Almloef) done
Projecting the Hessian                  .... done
Forming the augmented Hessian           .... done
Diagonalizing the augmented Hessian     .... done
Last element of RFO vector              ....  0.989929014
Lowest eigenvalues of augmented Hessian:
 -0.005151114  0.209073295  0.210226278  0.261600398  0.261622580
Length of the computed step             ....  0.143004841
The final length of the internal step   ....  0.143004841
Converting the step to cartesian space:
 Initial RMS(Int)=    0.0382196515
Transforming coordinates:
 Iter   0:  RMS(Cart)=    0.0337065985 RMS(Int)=    0.0382196519
 Iter   1:  RMS(Cart)=    0.0000006542 RMS(Int)=    0.0000002413
 Iter   2:  RMS(Cart)=    0.0000000089 RMS(Int)=    0.0000000034
done
Storing new coordinates                 .... done

                                .--------------------.
          ----------------------|Geometry convergence|-------------------------
          Item                value                   Tolerance       Converged
          ---------------------------------------------------------------------
          RMS gradient        0.0096693164            0.0001000000      NO
          MAX gradient        0.0186533650            0.0003000000      NO
          RMS step            0.0382196515            0.0020000000      NO
          MAX step            0.0699220555            0.0040000000      NO
          ........................................................
          Max(Bonds)      0.0370      Max(Angles)    0.00
          Max(Dihed)        0.00      Max(Improp)    0.00
          ---------------------------------------------------------------------

The optimization has not yet converged - more geometry cycles are needed


    ---------------------------------------------------------------------------
                         Redundant Internal Coordinates
                            (Angstroem and degrees)

        Definition                    Value    dE/dq     Step     New-Value
    ----------------------------------------------------------------------------
     1. B(Cl  1,Sb  0)                2.2770 -0.018635  0.0370    2.3140   
     2. B(Cl  2,Sb  0)                2.2770 -0.018653  0.0370    2.3140   
     3. B(Cl  3,Sb  0)                2.2770 -0.018653  0.0370    2.3140   
     4. B(Cl  4,Sb  0)                2.3380 -0.011528  0.0285    2.3665   
     5. B(Cl  5,Sb  0)                2.3380 -0.011528  0.0285    2.3665   
     6. A(Cl  1,Sb  0,Cl  3)          120.00 -0.000007    0.00    120.00   
     7. A(Cl  2,Sb  0,Cl  3)          120.00  0.000014   -0.00    120.00   
     8. A(Cl  1,Sb  0,Cl  4)           90.00  0.000012   -0.00     90.00   
     9. A(Cl  2,Sb  0,Cl  4)           90.00 -0.000006    0.00     90.00   
    10. A(Cl  3,Sb  0,Cl  4)           90.00 -0.000006    0.00     90.00   
    11. A(Cl  1,Sb  0,Cl  5)           90.00  0.000012   -0.00     90.00   
    12. A(Cl  2,Sb  0,Cl  5)           90.00 -0.000006    0.00     90.00   
    13. A(Cl  3,Sb  0,Cl  5)           90.00 -0.000006    0.00     90.00   
    14. A(Cl  1,Sb  0,Cl  2)          120.00 -0.000007    0.00    120.00   
    ----------------------------------------------------------------------------

         *************************************************************
         *                GEOMETRY OPTIMIZATION CYCLE   2            *
         *************************************************************
---------------------------------
CARTESIAN COORDINATES (ANGSTROEM)
---------------------------------
  Sb    -0.000000   -0.000008   -0.000000
  Cl    -0.000000    2.313961    0.000000
  Cl     2.003924   -1.157042    0.000000
  Cl    -2.003924   -1.157042    0.000000
  Cl     0.000000    0.000065    2.366477
  Cl     0.000000    0.000065   -2.366477

----------------------------
CARTESIAN COORDINATES (A.U.)
----------------------------
  NO LB      ZA    FRAG     MASS         X           Y           Z
   0 Sb   23.0000*   0   121.750   -0.000000   -0.000014   -0.000000
   1 Cl   17.0000    0    35.453   -0.000000    4.372753    0.000000
   2 Cl   17.0000    0    35.453    3.786868   -2.186492    0.000000
   3 Cl   17.0000    0    35.453   -3.786868   -2.186492    0.000000
   4 Cl   17.0000    0    35.453    0.000000    0.000123    4.471993
   5 Cl   17.0000    0    35.453    0.000000    0.000123   -4.471993
* core charge reduced due to ECP

--------------------------------
INTERNAL COORDINATES (ANGSTROEM)
--------------------------------
 Sb     0   0   0     0.000000000000     0.00000000     0.00000000
 Cl     1   0   0     2.313968591014     0.00000000     0.00000000
 Cl     1   2   0     2.313966649409   120.00146030     0.00000000
 Cl     1   2   3     2.313966651945   120.00146011   179.99999852
 Cl     1   2   3     2.366476665543    89.99824087    89.99999898
 Cl     1   2   3     2.366476678318    89.99824126   269.99999934

---------------------------
INTERNAL COORDINATES (A.U.)
---------------------------
 Sb     0   0   0     0.000000000000     0.00000000     0.00000000
 Cl     1   0   0     4.372766919512     0.00000000     0.00000000
 Cl     1   2   0     4.372763250410   120.00146030     0.00000000
 Cl     1   2   3     4.372763255204   120.00146011   179.99999852
 Cl     1   2   3     4.471992800192    89.99824087    89.99999898
 Cl     1   2   3     4.471992824333    89.99824126   269.99999934

------------------------------------------------------------------------------
                   ___                                                        
                  /   \      - P O W E R E D   B Y -                         
                 /     \                                                     
                 |  |  |   _    _      __       _____    __    __             
                 |  |  |  | |  | |    /  \     |  _  \  |  |  /  |          
                  \  \/   | |  | |   /    \    | | | |  |  | /  /          
                 / \  \   | |__| |  /  /\  \   | |_| |  |  |/  /          
                |  |  |   |  __  | /  /__\  \  |    /   |      \           
                |  |  |   | |  | | |   __   |  |    \   |  |\   \          
                \     /   | |  | | |  |  |  |  | |\  \  |  | \   \       
                 \___/    |_|  |_| |__|  |__|  |_| \__\ |__|  \__/        
                                                                              
                      - O R C A' S   B I G   F R I E N D -                    
                                      &                                       
                       - I N T E G R A L  F E E D E R -                       
                                                                              
 v1 FN, 2020, v2 2021                                                         
------------------------------------------------------------------------------


Reading SHARK input file SbCl5_opt.SHARKINP.tmp ... ok
----------------------
SHARK INTEGRAL PACKAGE
----------------------

Number of atoms                             ...      6
Number of basis functions                   ...    235
Number of shells                            ...     81
Maximum angular momentum                    ...      3
Integral batch strategy                     ... SHARK/LIBINT Hybrid
RI-J (if used) integral strategy            ... SPLIT-RIJ (Revised 2003 algorithm where possible)
Printlevel                                  ...      1
Contraction scheme used                     ... SEGMENTED contraction
Coulomb Range Separation                    ... NOT USED
Exchange Range Separation                   ... NOT USED
Finite Nucleus Model                        ... NOT USED
Auxiliary Coulomb fitting basis             ... AVAILABLE
   # of basis functions in Aux-J            ...    313
   # of shells in Aux-J                     ...    103
   Maximum angular momentum in Aux-J        ...      4
Auxiliary J/K fitting basis                 ... NOT available
Auxiliary Correlation fitting basis         ... NOT available
Auxiliary 'external' fitting basis          ... NOT available
Integral threshold                          ...     2.500000e-11
Primitive cut-off                           ...     2.500000e-12
Primitive pair pre-selection threshold      ...     2.500000e-12

Calculating pre-screening integrals         ... done (  0.1 sec) Dimension = 81
Organizing shell pair data                  ... done (  0.1 sec)
Shell pair information
Total number of shell pairs                 ...      3321
Shell pairs after pre-screening             ...      2751
Total number of primitive shell pairs       ...     13738
Primitive shell pairs kept                  ...      7629
          la=0 lb=0:    348 shell pairs
          la=1 lb=0:    708 shell pairs
          la=1 lb=1:    372 shell pairs
          la=2 lb=0:    355 shell pairs
          la=2 lb=1:    360 shell pairs
          la=2 lb=2:     90 shell pairs
          la=3 lb=0:    199 shell pairs
          la=3 lb=1:    200 shell pairs
          la=3 lb=2:     91 shell pairs
          la=3 lb=3:     28 shell pairs

Calculating one electron integrals          ... done (  0.0 sec)
Calculating ECP integrals                   ... done (  0.2 sec)
Calculating RI/J V-Matrix + Cholesky decomp.... done (  0.0 sec)
Calculating Nuclear repulsion               ... done (  0.0 sec) ENN=    867.139283543961 Eh

SHARK setup successfully completed in   0.6 seconds

Maximum memory used throughout the entire GTOINT-calculation: 88.1 MB

Diagonalization of the overlap matrix:
Smallest eigenvalue                        ... 4.763e-03
Time for diagonalization                   ...    0.005 sec
Threshold for overlap eigenvalues          ... 1.000e-08
Number of eigenvalues below threshold      ... 0
Time for construction of square roots      ...    0.005 sec
Total time needed                          ...    0.012 sec

-------------------
DFT GRID GENERATION
-------------------

General Integration Accuracy     IntAcc      ... 4.388
Radial Grid Type                 RadialGrid  ... OptM3 with GC (2021)
Angular Grid (max. ang.)         AngularGrid ... 4 (Lebedev-302)
Angular grid pruning method      GridPruning ... 4 (adaptive)
Weight generation scheme         WeightScheme... Becke
Basis function cutoff            BFCut       ... 1.0000e-11
Integration weight cutoff        WCut        ... 1.0000e-14
Angular grids for H and He will be reduced by one unit
Partially contracted basis set               ... off
Rotationally invariant grid construction     ... off

Total number of grid points                  ...    48473
Total number of batches                      ...      760
Average number of points per batch           ...       63
Average number of grid points per atom       ...     8079
Time for grid setup =    0.556 sec

--------------
SCF ITERATIONS
--------------
ITER       Energy         Delta-E        Max-DP      RMS-DP      [F,P]     Damp
               ***  Starting incremental Fock matrix formation  ***
  0  -2540.5096129381   0.000000000000 0.00606413  0.00007504  0.0408970 0.7000
                      *** Initiating the SOSCF procedure ***
                      *** Re-Reading the Fockian *** 
                      *** Removing any level shift *** 
ITER      Energy       Delta-E        Grad      Rot      Max-DP    RMS-DP
  1  -2540.50980129  -0.0001883545  0.002239  0.002239  0.020666  0.000241
               *** Restarting incremental Fock matrix formation ***
  2  -2540.51021850  -0.0004172091  0.000876  0.003744  0.003653  0.000080
  3  -2540.51020931   0.0000091882  0.001025  0.003172  0.001670  0.000044
  4  -2540.51023924  -0.0000299309  0.000506  0.001913  0.002934  0.000039
  5  -2540.51023503   0.0000042173  0.000502  0.001017  0.001465  0.000023
  6  -2540.51024350  -0.0000084712  0.000064  0.000261  0.000641  0.000006
  7  -2540.51024325   0.0000002498  0.000145  0.000182  0.000459  0.000004
  8  -2540.51024356  -0.0000003088  0.000003  0.000002  0.000012  0.000000
                  ***Gradient check signals convergence***
              ***Rediagonalizing the Fockian in SOSCF/NRSCF***

               *****************************************************
               *                     SUCCESS                       *
               *           SCF CONVERGED AFTER   9 CYCLES          *
               *****************************************************

Total Energy       :        -2540.51024356 Eh          -69130.79827 eV
  Last Energy change         ...   -4.1655e-09  Tolerance :   1.0000e-08
  Last MAX-Density change    ...    4.9886e-06  Tolerance :   1.0000e-07
             **** THE GBW FILE WAS UPDATED (SbCl5_opt.gbw) ****
             **** DENSITY SbCl5_opt.scfp WAS UPDATED ****
             **** ENERGY FILE WAS UPDATED (SbCl5_opt.en.tmp) ****
             **** THE GBW FILE WAS UPDATED (SbCl5_opt.gbw) ****
             **** DENSITY SbCl5_opt.scfp WAS UPDATED ****
Total SCF time: 0 days 0 hours 0 min 8 sec 

Maximum memory used throughout the entire SCF-calculation: 103.8 MB

-------------------------   --------------------
FINAL SINGLE POINT ENERGY     -2540.510243561558
-------------------------   --------------------

------------------------------------------------------------------------------
                         ORCA SCF GRADIENT CALCULATION
------------------------------------------------------------------------------

Gradient of the Kohn-Sham DFT energy:
Kohn-Sham wavefunction type      ... RKS
Hartree-Fock exchange scaling    ...    0.000
Number of operators              ...    1
Number of atoms                  ...    6
Basis set dimensions             ...  235
Integral neglect threshold       ... 2.5e-11
Integral primitive cutoff        ... 2.5e-12
SHARK Integral package           ... ON

Nuc. rep. gradient       (SHARK) ... done (  0.0 sec)
HCore & Overlap gradient (SHARK) ... done (  0.1 sec)
ECP gradient             (SHARK) ... done (  1.0 sec)
RI-J gradient            (SHARK) ... done (  2.2 sec)
Exchange-correlation gradient    ... done

------------------
CARTESIAN GRADIENT
------------------

   1   Sb  :    0.000000001   -0.000008594    0.000000005
   2   Cl  :    0.000000002   -0.006461244   -0.000000000
   3   Cl  :   -0.005567953    0.003236099    0.000000002
   4   Cl  :    0.005567947    0.003236094    0.000000000
   5   Cl  :    0.000000001   -0.000001179   -0.002672472
   6   Cl  :    0.000000001   -0.000001177    0.002672465

Difference to translation invariance:
           :    0.0000000000    0.0000000000   -0.0000000000

Difference to rotation invariance:
           :    0.0000000020   -0.0000000048   -0.0000000015

Norm of the cartesian gradient     ...    0.0117890078
RMS gradient                       ...    0.0027786958
MAX gradient                       ...    0.0064612439

-------
TIMINGS
-------

Total SCF gradient time            ...        6.262 sec

One electron gradient       ....       1.132 sec  ( 18.1%)
RI-J Coulomb gradient       ....       2.186 sec  ( 34.9%)
XC gradient                 ....       2.821 sec  ( 45.0%)

Maximum memory used throughout the entire SCFGRAD-calculation: 102.8 MB
------------------------------------------------------------------------------
                         ORCA GEOMETRY RELAXATION STEP
------------------------------------------------------------------------------

Reading the OPT-File                    .... done
Getting information on internals        .... done
Copying old internal coords+grads       .... done
Making the new internal coordinates     .... (new redundants).... done
Validating the new internal coordinates .... (new redundants).... done
Calculating the B-matrix                .... done
Calculating the G,G- and P matrices     .... done
Transforming gradient to internals      .... done
Projecting the internal gradient        .... done
Number of atoms                         ....   6
Number of internal coordinates          ....  14
Current Energy                          .... -2540.510243562 Eh
Current gradient norm                   ....     0.011789008 Eh/bohr
Maximum allowed component of the step   ....  0.300
Current trust radius                    ....  0.300
Updating the Hessian (BFGS)             .... done
Forming the augmented Hessian           .... done
Diagonalizing the augmented Hessian     .... done
Last element of RFO vector              ....  0.997757142
Lowest eigenvalues of augmented Hessian:
 -0.000788961  0.172032584  0.209073295  0.222262436  0.261600940
Length of the computed step             ....  0.067088398
The final length of the internal step   ....  0.067088398
Converting the step to cartesian space:
 Initial RMS(Int)=    0.0179301285
Transforming coordinates:
 Iter   0:  RMS(Cart)=    0.0158133589 RMS(Int)=    0.0179301326
 Iter   1:  RMS(Cart)=    0.0000010217 RMS(Int)=    0.0000005122
 Iter   2:  RMS(Cart)=    0.0000000082 RMS(Int)=    0.0000000041
done
Storing new coordinates                 .... done

                                .--------------------.
          ----------------------|Geometry convergence|-------------------------
          Item                value                   Tolerance       Converged
          ---------------------------------------------------------------------
          Energy change      -0.0033481106            0.0000050000      NO
          RMS gradient        0.0031507856            0.0001000000      NO
          MAX gradient        0.0064612439            0.0003000000      NO
          RMS step            0.0179301285            0.0020000000      NO
          MAX step            0.0358079723            0.0040000000      NO
          ........................................................
          Max(Bonds)      0.0189      Max(Angles)    0.01
          Max(Dihed)        0.00      Max(Improp)    0.00
          ---------------------------------------------------------------------

The optimization has not yet converged - more geometry cycles are needed


    ---------------------------------------------------------------------------
                         Redundant Internal Coordinates
                            (Angstroem and degrees)

        Definition                    Value    dE/dq     Step     New-Value
    ----------------------------------------------------------------------------
     1. B(Cl  1,Sb  0)                2.3140 -0.006461  0.0189    2.3329   
     2. B(Cl  2,Sb  0)                2.3140 -0.006440  0.0189    2.3329   
     3. B(Cl  3,Sb  0)                2.3140 -0.006440  0.0189    2.3329   
     4. B(Cl  4,Sb  0)                2.3665 -0.002672  0.0097    2.3762   
     5. B(Cl  5,Sb  0)                2.3665 -0.002672  0.0097    2.3762   
     6. A(Cl  1,Sb  0,Cl  3)          120.00 -0.000027    0.01    120.01   
     7. A(Cl  2,Sb  0,Cl  3)          120.00  0.000054   -0.01    119.99   
     8. A(Cl  1,Sb  0,Cl  4)           90.00  0.000003   -0.00     90.00   
     9. A(Cl  2,Sb  0,Cl  4)           90.00 -0.000002    0.00     90.00   
    10. A(Cl  3,Sb  0,Cl  4)           90.00 -0.000002    0.00     90.00   
    11. A(Cl  1,Sb  0,Cl  5)           90.00  0.000003   -0.00     90.00   
    12. A(Cl  2,Sb  0,Cl  5)           90.00 -0.000002    0.00     90.00   
    13. A(Cl  3,Sb  0,Cl  5)           90.00 -0.000002    0.00     90.00   
    14. A(Cl  1,Sb  0,Cl  2)          120.00 -0.000027    0.01    120.01   
    ----------------------------------------------------------------------------

         *************************************************************
         *                GEOMETRY OPTIMIZATION CYCLE   3            *
         *************************************************************
---------------------------------
CARTESIAN COORDINATES (ANGSTROEM)
---------------------------------
  Sb     0.000000    0.000037   -0.000000
  Cl    -0.000000    2.332955    0.000000
  Cl     2.020164   -1.166636   -0.000000
  Cl    -2.020164   -1.166636    0.000000
  Cl    -0.000000    0.000140    2.376175
  Cl    -0.000000    0.000140   -2.376175

----------------------------
CARTESIAN COORDINATES (A.U.)
----------------------------
  NO LB      ZA    FRAG     MASS         X           Y           Z
   0 Sb   23.0000*   0   121.750    0.000000    0.000071   -0.000000
   1 Cl   17.0000    0    35.453   -0.000000    4.408646    0.000000
   2 Cl   17.0000    0    35.453    3.817557   -2.204622   -0.000000
   3 Cl   17.0000    0    35.453   -3.817557   -2.204622    0.000000
   4 Cl   17.0000    0    35.453   -0.000000    0.000264    4.490320
   5 Cl   17.0000    0    35.453   -0.000000    0.000264   -4.490320
* core charge reduced due to ECP

--------------------------------
INTERNAL COORDINATES (ANGSTROEM)
--------------------------------
 Sb     0   0   0     0.000000000000     0.00000000     0.00000000
 Cl     1   0   0     2.332917353807     0.00000000     0.00000000
 Cl     1   2   0     2.332850282246   120.00703794     0.00000000
 Cl     1   2   3     2.332850262537   120.00703585   180.00000000
 Cl     1   2   3     2.376174957968    89.99753584    90.00000068
 Cl     1   2   3     2.376174943927    89.99753656   269.99999965

---------------------------
INTERNAL COORDINATES (A.U.)
---------------------------
 Sb     0   0   0     0.000000000000     0.00000000     0.00000000
 Cl     1   0   0     4.408574891768     0.00000000     0.00000000
 Cl     1   2   0     4.408448144886   120.00703794     0.00000000
 Cl     1   2   3     4.408448107642   120.00703585   180.00000000
 Cl     1   2   3     4.490319916841    89.99753584    90.00000068
 Cl     1   2   3     4.490319890307    89.99753656   269.99999965

------------------------------------------------------------------------------
                   ___                                                        
                  /   \      - P O W E R E D   B Y -                         
                 /     \                                                     
                 |  |  |   _    _      __       _____    __    __             
                 |  |  |  | |  | |    /  \     |  _  \  |  |  /  |          
                  \  \/   | |  | |   /    \    | | | |  |  | /  /          
                 / \  \   | |__| |  /  /\  \   | |_| |  |  |/  /          
                |  |  |   |  __  | /  /__\  \  |    /   |      \           
                |  |  |   | |  | | |   __   |  |    \   |  |\   \          
                \     /   | |  | | |  |  |  |  | |\  \  |  | \   \       
                 \___/    |_|  |_| |__|  |__|  |_| \__\ |__|  \__/        
                                                                              
[...]
  76   0.0000       0.284454         7.7404 
  77   0.0000       0.284454         7.7404 
  78   0.0000       0.295987         8.0542 
  79   0.0000       0.307890         8.3781 
  80   0.0000       0.307904         8.3785 
  81   0.0000       0.309592         8.4244 
  82   0.0000       0.309627         8.4254 
  83   0.0000       0.322807         8.7840 
  84   0.0000       0.347794         9.4640 
  85   0.0000       0.350231         9.5303 
  86   0.0000       0.353572         9.6212 
  87   0.0000       0.353613         9.6223 
  88   0.0000       0.366281         9.9670 
  89   0.0000       0.378204        10.2914 
  90   0.0000       0.378219        10.2919 
  91   0.0000       0.391061        10.6413 
  92   0.0000       0.391136        10.6434 
  93   0.0000       0.473643        12.8885 
  94   0.0000       0.473783        12.8923 
  95   0.0000       0.492378        13.3983 
  96   0.0000       0.513507        13.9732 
  97   0.0000       0.513586        13.9754 
  98   0.0000       0.515219        14.0198 
  99   0.0000       0.519289        14.1306 
 100   0.0000       0.519422        14.1342 
 101   0.0000       0.568677        15.4745 
 102   0.0000       0.570281        15.5181 
 103   0.0000       0.595739        16.2109 
 104   0.0000       0.595741        16.2109 
 105   0.0000       0.641398        17.4533 
 106   0.0000       0.641574        17.4581 
 107   0.0000       0.781136        21.2558 
 108   0.0000       0.781225        21.2582 
 109   0.0000       0.789661        21.4878 
 110   0.0000       0.789694        21.4887 
 111   0.0000       0.794948        21.6316 
 112   0.0000       0.827868        22.5274 
 113   0.0000       0.843395        22.9500 
 114   0.0000       0.843418        22.9506 
 115   0.0000       0.843945        22.9649 
 116   0.0000       0.859253        23.3815 
 117   0.0000       1.058132        28.7932 
 118   0.0000       1.073792        29.2194 
 119   0.0000       1.115951        30.3666 
 120   0.0000       1.116022        30.3685 
 121   0.0000       1.175340        31.9826 
 122   0.0000       1.175377        31.9836 
 123   0.0000       1.188785        32.3485 
 124   0.0000       1.191696        32.4277 
 125   0.0000       1.191740        32.4289 
 126   0.0000       1.191791        32.4303 
 127   0.0000       1.604378        43.6574 
 128   0.0000       1.604431        43.6588 
 129   0.0000       1.607033        43.7296 
 130   0.0000       1.607083        43.7310 
 131   0.0000       1.612791        43.8863 
 132   0.0000       1.652721        44.9728 
 133   0.0000       1.652759        44.9739 
 134   0.0000       1.662160        45.2297 
 135   0.0000       1.662197        45.2307 
 136   0.0000       1.669434        45.4276 
 137   0.0000       1.683885        45.8208 
 138   0.0000       1.722928        46.8833 
 139   0.0000       1.742100        47.4049 
 140   0.0000       1.754789        47.7502 
 141   0.0000       1.754875        47.7526 
 142   0.0000       1.764990        48.0278 
 143   0.0000       1.765043        48.0293 
 144   0.0000       1.770657        48.1820 
 145   0.0000       1.770675        48.1825 
 146   0.0000       1.788607        48.6705 
 147   0.0000       1.788753        48.6744 
 148   0.0000       1.799624        48.9703 
 149   0.0000       1.804822        49.1117 
 150   0.0000       1.804935        49.1148 
 151   0.0000       1.817858        49.4664 
 152   0.0000       1.937018        52.7089 
 153   0.0000       1.937057        52.7100 
 154   0.0000       1.941565        52.8327 
 155   0.0000       1.941569        52.8328 
 156   0.0000       1.947676        52.9990 
 157   0.0000       1.951166        53.0939 
 158   0.0000       1.951183        53.0944 
 159   0.0000       1.958773        53.3009 
 160   0.0000       1.963157        53.4202 
 161   0.0000       1.963169        53.4206 
 162   0.0000       1.968026        53.5527 
 163   0.0000       1.968055        53.5535 
 164   0.0000       1.968228        53.5582 
 165   0.0000       1.970776        53.6275 
 166   0.0000       1.970959        53.6325 
 167   0.0000       1.970979        53.6331 
 168   0.0000       1.972355        53.6705 
 169   0.0000       1.973263        53.6952 
 170   0.0000       1.973267        53.6953 
 171   0.0000       1.979824        53.8738 
 172   0.0000       1.979855        53.8746 
 173   0.0000       1.983140        53.9640 
 174   0.0000       1.984467        54.0001 
 175   0.0000       1.986556        54.0569 
 176   0.0000       1.990025        54.1513 
 177   0.0000       1.995761        54.3074 
 178   0.0000       2.043272        55.6003 
 179   0.0000       2.071886        56.3789 
 180   0.0000       2.072196        56.3873 
 181   0.0000       2.104617        57.2695 
 182   0.0000       2.104661        57.2707 
 183   0.0000       2.123047        57.7711 
 184   0.0000       2.123148        57.7738 
 185   0.0000       2.124637        57.8143 
 186   0.0000       2.131083        57.9897 
 187   0.0000       2.176237        59.2184 
 188   0.0000       2.182163        59.3797 
 189   0.0000       2.182229        59.3815 
 190   0.0000       2.193245        59.6812 
 191   0.0000       2.193304        59.6828 
 192   0.0000       2.195531        59.7434 
 193   0.0000       2.195655        59.7468 
 194   0.0000       2.223667        60.5091 
 195   0.0000       2.328086        63.3504 
 196   0.0000       2.328389        63.3587 
 197   0.0000       2.388628        64.9979 
 198   0.0000       2.414798        65.7100 
 199   0.0000       2.486299        67.6556 
 200   0.0000       2.623380        71.3858 
 201   0.0000       2.623570        71.3910 
 202   0.0000       2.650056        72.1117 
 203   0.0000       2.650363        72.1201 
 204   0.0000       2.728160        74.2370 
 205   0.0000       2.728337        74.2418 
 206   0.0000       2.768309        75.3295 
 207   0.0000       2.812480        76.5315 
 208   0.0000       3.274594        89.1062 
 209   0.0000       3.859650       105.0264 
 210   0.0000      10.476626       285.0835 
 211   0.0000      10.476735       285.0864 
 212   0.0000      10.501938       285.7722 
 213   0.0000      10.501968       285.7731 
 214   0.0000      10.511304       286.0271 
 215   0.0000      10.521450       286.3032 
 216   0.0000      10.521464       286.3036 
 217   0.0000      10.536980       286.7258 
 218   0.0000      10.536993       286.7262 
 219   0.0000      10.537006       286.7265 
 220   0.0000      10.665285       290.2172 
 221   0.0000      10.689230       290.8687 
 222   0.0000      10.759921       292.7923 
 223   0.0000      10.760158       292.7988 
 224   0.0000      10.817255       294.3525 
 225   0.0000      24.608616       669.6345 
 226   0.0000      24.645791       670.6461 
 227   0.0000      24.759091       673.7291 
 228   0.0000      24.759494       673.7401 
 229   0.0000      24.818583       675.3480 
 230   0.0000      39.000382      1061.2544 
 231   0.0000      39.006624      1061.4242 
 232   0.0000      39.006665      1061.4253 
 233   0.0000      39.939893      1086.8198 
 234   0.0000     112.695652      3066.6046 

                    ********************************
                    * MULLIKEN POPULATION ANALYSIS *
                    ********************************

-----------------------
MULLIKEN ATOMIC CHARGES
-----------------------
   0 Sb:    0.997232
   1 Cl:   -0.186073
   2 Cl:   -0.186050
   3 Cl:   -0.186050
   4 Cl:   -0.219530
   5 Cl:   -0.219530
Sum of atomic charges:   -0.0000000

--------------------------------
MULLIKEN REDUCED ORBITAL CHARGES
--------------------------------
  0 Sbs       :     3.364978  s :     3.364978
      pz      :     2.672351  p :     7.909917
      px      :     2.618777
      py      :     2.618789
      dz2     :     2.132953  d :    10.579317
      dxz     :     2.119254
      dyz     :     2.119278
      dx2y2   :     2.103931
      dxy     :     2.103902
      f0      :     0.036158  f :     0.148556
      f+1     :     0.026050
      f-1     :     0.026056
      f+2     :     0.009161
      f-2     :     0.009183
      f+3     :     0.026742
      f-3     :     0.015205
  1 Cls       :     5.960301  s :     5.960301
      pz      :     3.921910  p :    11.190046
      px      :     3.877851
      py      :     3.390284
      dz2     :     0.006152  d :     0.033455
      dxz     :     0.000258
      dyz     :     0.006377
      dx2y2   :     0.014511
      dxy     :     0.006157
      f0      :     0.000194  f :     0.002272
      f+1     :     0.000043
      f-1     :     0.000567
      f+2     :     0.000284
      f-2     :     0.000013
      f+3     :     0.000450
      f-3     :     0.000721
  2 Cls       :     5.960294  s :     5.960294
      pz      :     3.921863  p :    11.190020
      px      :     3.512412
      py      :     3.755746
      dz2     :     0.006152  d :     0.033463
      dxz     :     0.004846
      dyz     :     0.001791
      dx2y2   :     0.008242
      dxy     :     0.012433
      f0      :     0.000194  f :     0.002272
      f+1     :     0.000436
      f-1     :     0.000174
      f+2     :     0.000081
      f-2     :     0.000217
      f+3     :     0.000450
      f-3     :     0.000721
  3 Cls       :     5.960294  s :     5.960294
      pz      :     3.921863  p :    11.190020
      px      :     3.512412
      py      :     3.755746
      dz2     :     0.006152  d :     0.033463
      dxz     :     0.004846
      dyz     :     0.001791
      dx2y2   :     0.008242
      dxy     :     0.012433
      f0      :     0.000194  f :     0.002272
      f+1     :     0.000436
      f-1     :     0.000174
      f+2     :     0.000081
      f-2     :     0.000217
      f+3     :     0.000450
      f-3     :     0.000721
  4 Cls       :     5.960309  s :     5.960309
      pz      :     3.403571  p :    11.226636
      px      :     3.911513
      py      :     3.911552
      dz2     :     0.017742  d :     0.030563
      dxz     :     0.005680
      dyz     :     0.005681
      dx2y2   :     0.000730
      dxy     :     0.000730
      f0      :     0.001110  f :     0.002022
      f+1     :     0.000414
      f-1     :     0.000414
      f+2     :     0.000036
      f-2     :     0.000036
      f+3     :     0.000004
      f-3     :     0.000007
  5 Cls       :     5.960309  s :     5.960309
      pz      :     3.403571  p :    11.226636
      px      :     3.911513
      py      :     3.911552
      dz2     :     0.017742  d :     0.030563
      dxz     :     0.005680
      dyz     :     0.005681
      dx2y2   :     0.000730
      dxy     :     0.000730
      f0      :     0.001110  f :     0.002022
      f+1     :     0.000414
      f-1     :     0.000414
      f+2     :     0.000036
      f-2     :     0.000036
      f+3     :     0.000004
      f-3     :     0.000007


                     *******************************
                     * LOEWDIN POPULATION ANALYSIS *
                     *******************************

----------------------
LOEWDIN ATOMIC CHARGES
----------------------
   0 Sb:   -0.314161
   1 Cl:    0.084380
   2 Cl:    0.084512
   3 Cl:    0.084512
   4 Cl:    0.030379
   5 Cl:    0.030379

-------------------------------
LOEWDIN REDUCED ORBITAL CHARGES
-------------------------------
  0 Sbs       :     3.122131  s :     3.122131
      pz      :     2.840906  p :     8.428801
      px      :     2.793907
      py      :     2.793987
      dz2     :     2.469985  d :    11.388628
      dxz     :     2.192400
      dyz     :     2.192431
      dx2y2   :     2.266841
      dxy     :     2.266969
      f0      :     0.098007  f :     0.374602
      f+1     :     0.063630
      f-1     :     0.063644
      f+2     :     0.018075
      f-2     :     0.018120
      f+3     :     0.053869
      f-3     :     0.059256
  1 Cls       :     5.729636  s :     5.729636
      pz      :     3.881837  p :    11.131597
      px      :     3.831873
      py      :     3.417888
      dz2     :     0.009984  d :     0.050569
      dxz     :     0.000241
      dyz     :     0.007460
      dx2y2   :     0.026990
      dxy     :     0.005895
      f0      :     0.000212  f :     0.003818
      f+1     :     0.000038
      f-1     :     0.001102
      f+2     :     0.000350
      f-2     :     0.000011
      f+3     :     0.000446
      f-3     :     0.001657
  2 Cls       :     5.729551  s :     5.729551
      pz      :     3.881765  p :    11.131535
      px      :     3.521598
      py      :     3.728173
      dz2     :     0.009985  d :     0.050583
      dxz     :     0.005653
      dyz     :     0.002049
      dx2y2   :     0.011156
      dxy     :     0.021739
      f0      :     0.000212  f :     0.003819
      f+1     :     0.000836
      f-1     :     0.000305
      f+2     :     0.000096
      f-2     :     0.000266
      f+3     :     0.000446
      f-3     :     0.001658
  3 Cls       :     5.729551  s :     5.729551
      pz      :     3.881765  p :    11.131535
      px      :     3.521598
      py      :     3.728173
      dz2     :     0.009985  d :     0.050583
      dxz     :     0.005653
      dyz     :     0.002049
      dx2y2   :     0.011156
      dxy     :     0.021739
      f0      :     0.000212  f :     0.003819
      f+1     :     0.000836
      f-1     :     0.000305
      f+2     :     0.000096
      f-2     :     0.000266
      f+3     :     0.000446
      f-3     :     0.001658
  4 Cls       :     5.743887  s :     5.743887
      pz      :     3.426877  p :    11.175996
      px      :     3.874537
      py      :     3.874582
      dz2     :     0.032357  d :     0.046341
      dxz     :     0.006157
      dyz     :     0.006159
      dx2y2   :     0.000834
      dxy     :     0.000835
      f0      :     0.002379  f :     0.003398
      f+1     :     0.000462
      f-1     :     0.000462
      f+2     :     0.000038
      f-2     :     0.000038
      f+3     :     0.000006
      f-3     :     0.000013
  5 Cls       :     5.743887  s :     5.743887
      pz      :     3.426877  p :    11.175996
      px      :     3.874537
      py      :     3.874582
      dz2     :     0.032357  d :     0.046341
      dxz     :     0.006157
      dyz     :     0.006159
      dx2y2   :     0.000834
      dxy     :     0.000835
      f0      :     0.002379  f :     0.003398
      f+1     :     0.000462
      f-1     :     0.000462
      f+2     :     0.000038
      f-2     :     0.000038
      f+3     :     0.000006
      f-3     :     0.000013


                      *****************************
                      * MAYER POPULATION ANALYSIS *
                      *****************************

  NA   - Mulliken gross atomic population
  ZA   - Total nuclear charge
  QA   - Mulliken gross atomic charge
  VA   - Mayer's total valence
  BVA  - Mayer's bonded valence
  FA   - Mayer's free valence

  ATOM       NA         ZA         QA         VA         BVA        FA
  0 Sb    22.0028    23.0000     0.9972     4.9687     4.9687     0.0000
  1 Cl    17.1861    17.0000    -0.1861     1.2272     1.2272    -0.0000
  2 Cl    17.1860    17.0000    -0.1860     1.2272     1.2272     0.0000
  3 Cl    17.1860    17.0000    -0.1860     1.2272     1.2272    -0.0000
  4 Cl    17.2195    17.0000    -0.2195     1.1841     1.1841     0.0000
  5 Cl    17.2195    17.0000    -0.2195     1.1841     1.1841     0.0000

  Mayer bond orders larger than 0.100000
B(  0-Sb,  1-Cl) :   1.0124 B(  0-Sb,  2-Cl) :   1.0125 B(  0-Sb,  3-Cl) :   1.0125 
B(  0-Sb,  4-Cl) :   0.9657 B(  0-Sb,  5-Cl) :   0.9657 

-------
TIMINGS
-------

Total SCF time: 0 days 0 hours 0 min 6 sec 

Total time                  ....       6.788 sec
Sum of individual times     ....       6.428 sec  ( 94.7%)

Fock matrix formation       ....       5.487 sec  ( 80.8%)
  Split-RI-J                ....       1.842 sec  ( 33.6% of F)
  XC integration            ....       3.628 sec  ( 66.1% of F)
    Basis function eval.    ....       1.222 sec  ( 33.7% of XC)
    Density eval.           ....       1.033 sec  ( 28.5% of XC)
    XC-Functional eval.     ....       0.189 sec  (  5.2% of XC)
    XC-Potential eval.      ....       0.966 sec  ( 26.6% of XC)
Diagonalization             ....       0.012 sec  (  0.2%)
Density matrix formation    ....       0.010 sec  (  0.1%)
Population analysis         ....       0.183 sec  (  2.7%)
Initial guess               ....       0.010 sec  (  0.1%)
Orbital Transformation      ....       0.000 sec  (  0.0%)
Orbital Orthonormalization  ....       0.005 sec  (  0.1%)
DIIS solution               ....       0.004 sec  (  0.1%)
SOSCF solution              ....       0.062 sec  (  0.9%)
Grid generation             ....       0.660 sec  (  9.7%)

Maximum memory used throughout the entire SCF-calculation: 103.7 MB

-------------------------   --------------------
FINAL SINGLE POINT ENERGY     -2540.510700292376
-------------------------   --------------------

                                *** OPTIMIZATION RUN DONE ***

                            ***************************************
                            *     ORCA property calculations      *
                            ***************************************

                                    ---------------------
                                    Active property flags
                                    ---------------------
   (+) Dipole Moment


------------------------------------------------------------------------------
                       ORCA ELECTRIC PROPERTIES CALCULATION
------------------------------------------------------------------------------

Dipole Moment Calculation                       ... on
Quadrupole Moment Calculation                   ... off
Polarizability Calculation                      ... off
GBWName                                         ... SbCl5_opt.gbw
Electron density                                ... SbCl5_opt.scfp
The origin for moment calculation is the CENTER OF MASS  = (-0.000000,  0.000069  0.000000)

-------------
DIPOLE MOMENT
-------------
                                X             Y             Z
Electronic contribution:     -0.00000       0.00583       0.00000
Nuclear contribution   :      0.00000      -0.00605      -0.00000
                        -----------------------------------------
Total Dipole Moment    :     -0.00000      -0.00023       0.00000
                        -----------------------------------------
Magnitude (a.u.)       :      0.00023
Magnitude (Debye)      :      0.00057



--------------------
Rotational spectrum 
--------------------
 
Rotational constants in cm-1:     0.029014     0.024428     0.024417 
Rotational constants in MHz :   869.814290   732.328265   732.006425 

 Dipole components along the rotational axes: 
x,y,z [a.u.] :     0.000000    -0.000226     0.000000 
x,y,z [Debye]:     0.000000    -0.000574     0.000000 

 

Timings for individual modules:

Sum of individual times         ...       94.441 sec (=   1.574 min)
GTO integral calculation        ...        4.149 sec (=   0.069 min)   4.4 %
SCF iterations                  ...       55.672 sec (=   0.928 min)  58.9 %
SCF Gradient evaluation         ...       34.380 sec (=   0.573 min)  36.4 %
Geometry relaxation             ...        0.240 sec (=   0.004 min)   0.3 %
                             ****ORCA TERMINATED NORMALLY****
TOTAL RUN TIME: 0 days 0 hours 1 minutes 35 seconds 46 msec
