
                                 *****************
                                 * O   R   C   A *
                                 *****************

                                            #,                                       
                                            ###                                      
                                            ####                                     
                                            #####                                    
                                            ######                                   
                                           ########,                                 
                                     ,,################,,,,,                         
                               ,,#################################,,                 
                          ,,##########################################,,             
                       ,#########################################, ''#####,          
                    ,#############################################,,   '####,        
                  ,##################################################,,,,####,       
                ,###########''''           ''''###############################       
              ,#####''   ,,,,##########,,,,          '''####'''          '####       
            ,##' ,,,,###########################,,,                        '##       
           ' ,,###''''                  '''############,,,                           
         ,,##''                                '''############,,,,        ,,,,,,###''
      ,#''                                            '''#######################'''  
     '                                                          ''''####''''         
             ,#######,   #######,   ,#######,      ##                                
            ,#'     '#,  ##    ##  ,#'     '#,    #''#        ######   ,####,        
            ##       ##  ##   ,#'  ##            #'  '#       #        #'  '#        
            ##       ##  #######   ##           ,######,      #####,   #    #        
            '#,     ,#'  ##    ##  '#,     ,#' ,#      #,         ##   #,  ,#        
             '#######'   ##     ##  '#######'  #'      '#     #####' # '####'        



                  #######################################################
                  #                        -***-                        #
                  #          Department of theory and spectroscopy      #
                  #    Directorship and core code : Frank Neese         #
                  #        Max Planck Institute fuer Kohlenforschung    #
                  #                Kaiser Wilhelm Platz 1               #
                  #                 D-45470 Muelheim/Ruhr               #
                  #                      Germany                        #
                  #                                                     #
                  #                  All rights reserved                #
                  #                        -***-                        #
                  #######################################################



                         Program Version 5.0.4 -  RELEASE  -

 With contributions from (in alphabetic order):
   Daniel Aravena         : Magnetic Suceptibility
   Michael Atanasov       : Ab Initio Ligand Field Theory (pilot matlab implementation)
   Alexander A. Auer      : GIAO ZORA, VPT2 properties, NMR spectrum
   Ute Becker             : Parallelization
   Giovanni Bistoni       : ED, misc. LED, open-shell LED, HFLD
   Martin Brehm           : Molecular dynamics
   Dmytro Bykov           : SCF Hessian
   Vijay G. Chilkuri      : MRCI spin determinant printing, contributions to CSF-ICE
   Dipayan Datta          : RHF DLPNO-CCSD density
   Achintya Kumar Dutta   : EOM-CC, STEOM-CC
   Dmitry Ganyushin       : Spin-Orbit,Spin-Spin,Magnetic field MRCI
   Miquel Garcia          : C-PCM and meta-GGA Hessian, CC/C-PCM, Gaussian charge scheme
   Yang Guo               : DLPNO-NEVPT2, F12-NEVPT2, CIM, IAO-localization
   Andreas Hansen         : Spin unrestricted coupled pair/coupled cluster methods
   Benjamin Helmich-Paris : MC-RPA, TRAH-SCF, COSX integrals
   Lee Huntington         : MR-EOM, pCC
   Robert Izsak           : Overlap fitted RIJCOSX, COSX-SCS-MP3, EOM
   Marcus Kettner         : VPT2
   Christian Kollmar      : KDIIS, OOCD, Brueckner-CCSD(T), CCSD density, CASPT2, CASPT2-K
   Simone Kossmann        : Meta GGA functionals, TD-DFT gradient, OOMP2, MP2 Hessian
   Martin Krupicka        : Initial AUTO-CI
   Lucas Lang             : DCDCAS
   Marvin Lechner         : AUTO-CI (C++ implementation), FIC-MRCC
   Dagmar Lenk            : GEPOL surface, SMD
   Dimitrios Liakos       : Extrapolation schemes; Compound Job, initial MDCI parallelization
   Dimitrios Manganas     : Further ROCIS development; embedding schemes
   Dimitrios Pantazis     : SARC Basis sets
   Anastasios Papadopoulos: AUTO-CI, single reference methods and gradients
   Taras Petrenko         : DFT Hessian,TD-DFT gradient, ASA, ECA, R-Raman, ABS, FL, XAS/XES, NRVS
   Peter Pinski           : DLPNO-MP2, DLPNO-MP2 Gradient
   Christoph Reimann      : Effective Core Potentials
   Marius Retegan         : Local ZFS, SOC
   Christoph Riplinger    : Optimizer, TS searches, QM/MM, DLPNO-CCSD(T), (RO)-DLPNO pert. Triples
   Tobias Risthaus        : Range-separated hybrids, TD-DFT gradient, RPA, STAB
   Michael Roemelt        : Original ROCIS implementation
   Masaaki Saitow         : Open-shell DLPNO-CCSD energy and density
   Barbara Sandhoefer     : DKH picture change effects
   Avijit Sen             : IP-ROCIS
   Kantharuban Sivalingam : CASSCF convergence, NEVPT2, FIC-MRCI
   Bernardo de Souza      : ESD, SOC TD-DFT
   Georgi Stoychev        : AutoAux, RI-MP2 NMR, DLPNO-MP2 response
   Willem Van den Heuvel  : Paramagnetic NMR
   Boris Wezisla          : Elementary symmetry handling
   Frank Wennmohs         : Technical directorship


 We gratefully acknowledge several colleagues who have allowed us to
 interface, adapt or use parts of their codes:
   Stefan Grimme, W. Hujo, H. Kruse, P. Pracht,  : VdW corrections, initial TS optimization,
                  C. Bannwarth, S. Ehlert          DFT functionals, gCP, sTDA/sTD-DF
   Ed Valeev, F. Pavosevic, A. Kumar             : LibInt (2-el integral package), F12 methods
   Garnet Chan, S. Sharma, J. Yang, R. Olivares  : DMRG
   Ulf Ekstrom                                   : XCFun DFT Library
   Mihaly Kallay                                 : mrcc  (arbitrary order and MRCC methods)
   Jiri Pittner, Ondrej Demel                    : Mk-CCSD
   Frank Weinhold                                : gennbo (NPA and NBO analysis)
   Christopher J. Cramer and Donald G. Truhlar   : smd solvation model
   Lars Goerigk                                  : TD-DFT with DH, B97 family of functionals
   V. Asgeirsson, H. Jonsson                     : NEB implementation
   FAccTs GmbH                                   : IRC, NEB, NEB-TS, DLPNO-Multilevel, CI-OPT
                                                   MM, QMMM, 2- and 3-layer-ONIOM, Crystal-QMMM,
                                                   LR-CPCM, SF, NACMEs, symmetry and pop. for TD-DFT,
                                                   nearIR, NL-DFT gradient (VV10), updates on ESD,
                                                   ML-optimized integration grids
   S Lehtola, MJT Oliveira, MAL Marques          : LibXC Library
   Liviu Ungur et al                             : ANISO software


 Your calculation uses the libint2 library for the computation of 2-el integrals
 For citations please refer to: http://libint.valeyev.net

 Your ORCA version has been built with support for libXC version: 5.1.0
 For citations please refer to: https://tddft.org/programs/libxc/

 This ORCA versions uses:
   CBLAS   interface :  Fast vector & matrix operations
   LAPACKE interface :  Fast linear algebra routines
   Shared memory     :  Shared parallel matrices


================================================================================

----- Orbital basis set information -----
Your calculation utilizes the basis: def2-TZVP
   F. Weigend and R. Ahlrichs, Phys. Chem. Chem. Phys. 7, 3297 (2005).

----- AuxJ basis set information -----
Your calculation utilizes the auxiliary basis: def2/J
   F. Weigend, Phys. Chem. Chem. Phys. 8, 1057 (2006).

================================================================================
                                        WARNINGS
                       Please study these warnings very carefully!
================================================================================


WARNING: Geometry Optimization
  ===> : Switching off AutoStart
         For restart on a previous wavefunction, please use MOREAD

INFO   : the flag for use of the SHARK integral package has been found!

================================================================================
                                       INPUT FILE
================================================================================
NAME = AsCl5_ts_opt.inp
|  1> ! PBE def2-TZVP OptTS
|  2> 
|  3> # %geom
|  4> #   Calc_Hess true
|  5> # end
|  6> 
|  7> %geom
|  8>   inhess read
|  9>   inhessname "AsCl5_ts_guess.hess"
| 10> end
| 11> 
| 12> * xyz 0 1
| 13> As  0.0000  0.0000  0.0000  # Arsenic (P)
| 14> Cl  0.0000  2.1060  0.0000  # Equatorial Chlorine (Cl1)
| 15> Cl  2.0830 -0.5581  0.0000  # Equatorial Chlorine (Cl2)
| 16> Cl -2.0830 -0.5581  0.0000  # Equatorial Chlorine (Cl3)
| 17> Cl  0.0000  0.5581  2.0830  # Axial Chlorine (Cl4)
| 18> Cl  0.0000  0.5581 -2.0830  # Axial Chlorine (Cl5)
| 19> **                         ****END OF INPUT****
================================================================================

                       *****************************
                       * Geometry Optimization Run *
                       *****************************

Geometry optimization settings:
Update method            Update   .... Bofill
Choice of coordinates    CoordSys .... Z-matrix Internals
Initial Hessian          InHess   .... Read

Convergence Tolerances:
Energy Change            TolE     ....  5.0000e-06 Eh
Max. Gradient            TolMAXG  ....  3.0000e-04 Eh/bohr
RMS Gradient             TolRMSG  ....  1.0000e-04 Eh/bohr
Max. Displacement        TolMAXD  ....  4.0000e-03 bohr
RMS Displacement         TolRMSD  ....  2.0000e-03 bohr
Strict Convergence                ....  False
------------------------------------------------------------------------------
                        ORCA OPTIMIZATION COORDINATE SETUP
------------------------------------------------------------------------------

The optimization will be done in new redundant internal coordinates
Making redundant internal coordinates   ...  (new redundants) done
Following TS mode number                ...     0
Evaluating the initial hessian          ... (Reading Exact Hessian)...  
InHessName: AsCl5_ts_guess.hess	The file <AsCl5_ts_guess.hess> is opened as a .hess file
done
done
Diagonalizing the Hessian               .... done
Dimension of the hessian                .... 15
Lowest eigenvalues of the non projected Hessian:
 -0.118022519 -0.000043194 -0.000000004  0.000055147  0.026069743
done
Evaluating the coordinates              ...  done
Calculating the B-matrix                .... done
Calculating the G-matrix                .... done
Diagonalizing the G-matrix              .... done
The first mode is                       ....    3
The number of degrees of freedom        ....   12

    -----------------------------------------------------------------
                    Redundant Internal Coordinates


    -----------------------------------------------------------------
         Definition                    Initial Value    d2E/dq (diagonal element)
    -----------------------------------------------------------------
      1. B(Cl  1,As  0)                  2.1060         0.223100   
      2. B(Cl  2,As  0)                  2.1565         0.150473   
      3. B(Cl  3,As  0)                  2.1565         0.150472   
      4. B(Cl  4,As  0)                  2.1565         0.173249   
      5. B(Cl  5,As  0)                  2.1565         0.173249   
      6. A(Cl  1,As  0,Cl  3)          104.9990        -0.009960   
      7. A(Cl  2,As  0,Cl  3)          150.0020         0.026434   
      8. A(Cl  1,As  0,Cl  4)           75.0010         0.548421   
      9. A(Cl  2,As  0,Cl  4)           93.8405         0.144891   
     10. A(Cl  3,As  0,Cl  4)           93.8405         0.144891   
     11. A(Cl  1,As  0,Cl  5)           75.0010         0.548421   
     12. A(Cl  2,As  0,Cl  5)           93.8405         0.144891   
     13. A(Cl  3,As  0,Cl  5)           93.8405         0.144891   
     14. A(Cl  4,As  0,Cl  5)          150.0020         0.198457   
     15. A(Cl  1,As  0,Cl  2)          104.9990        -0.009960   
    -----------------------------------------------------------------

Number of atoms                         .... 6
Number of degrees of freedom            .... 15

         *************************************************************
         *                GEOMETRY OPTIMIZATION CYCLE   1            *
         *************************************************************
---------------------------------
CARTESIAN COORDINATES (ANGSTROEM)
---------------------------------
  As     0.000000    0.000000    0.000000
  Cl     0.000000    2.106000    0.000000
  Cl     2.083000   -0.558100    0.000000
  Cl    -2.083000   -0.558100    0.000000
  Cl     0.000000    0.558100    2.083000
  Cl     0.000000    0.558100   -2.083000

----------------------------
CARTESIAN COORDINATES (A.U.)
----------------------------
  NO LB      ZA    FRAG     MASS         X           Y           Z
   0 As   33.0000    0    74.920    0.000000    0.000000    0.000000
   1 Cl   17.0000    0    35.453    0.000000    3.979763    0.000000
   2 Cl   17.0000    0    35.453    3.936300   -1.054656    0.000000
   3 Cl   17.0000    0    35.453   -3.936300   -1.054656    0.000000
   4 Cl   17.0000    0    35.453    0.000000    1.054656    3.936300
   5 Cl   17.0000    0    35.453    0.000000    1.054656   -3.936300

--------------------------------
INTERNAL COORDINATES (ANGSTROEM)
--------------------------------
 As     0   0   0     0.000000000000     0.00000000     0.00000000
 Cl     1   0   0     2.106000000000     0.00000000     0.00000000
 Cl     1   2   0     2.156470405547   104.99902046     0.00000000
 Cl     1   2   3     2.156470405547   104.99902046   180.00000000
 Cl     1   2   3     2.156470405547    75.00097954    90.00000000
 Cl     1   2   3     2.156470405547    75.00097954   270.00000000

---------------------------
INTERNAL COORDINATES (A.U.)
---------------------------
 As     0   0   0     0.000000000000     0.00000000     0.00000000
 Cl     1   0   0     3.979763238038     0.00000000     0.00000000
 Cl     1   2   0     4.075138482390   104.99902046     0.00000000
 Cl     1   2   3     4.075138482390   104.99902046   180.00000000
 Cl     1   2   3     4.075138482390    75.00097954    90.00000000
 Cl     1   2   3     4.075138482390    75.00097954   270.00000000

---------------------
BASIS SET INFORMATION
---------------------
There are 2 groups of distinct atoms

 Group   1 Type As  : 17s13p8d1f contracted to 6s5p4d1f pattern {842111/64111/5111/1}
 Group   2 Type Cl  : 14s9p3d1f contracted to 5s5p2d1f pattern {73211/51111/21/1}

Atom   0As   basis set group =>   1
Atom   1Cl   basis set group =>   2
Atom   2Cl   basis set group =>   2
Atom   3Cl   basis set group =>   2
Atom   4Cl   basis set group =>   2
Atom   5Cl   basis set group =>   2
---------------------------------
AUXILIARY/J BASIS SET INFORMATION
---------------------------------
There are 2 groups of distinct atoms

 Group   1 Type As  : 19s5p5d3f1g contracted to 8s4p3d2f1g pattern {121111111/2111/311/21/1}
 Group   2 Type Cl  : 14s5p5d2f1g contracted to 8s4p3d1f1g pattern {71111111/2111/311/2/1}

Atom   0As   basis set group =>   1
Atom   1Cl   basis set group =>   2
Atom   2Cl   basis set group =>   2
Atom   3Cl   basis set group =>   2
Atom   4Cl   basis set group =>   2
Atom   5Cl   basis set group =>   2
------------------------------------------------------------------------------
                           ORCA GTO INTEGRAL CALCULATION
                           -- RI-GTO INTEGRALS CHOSEN --
------------------------------------------------------------------------------
------------------------------------------------------------------------------
                   ___                                                        
                  /   \      - P O W E R E D   B Y -                         
                 /     \                                                     
                 |  |  |   _    _      __       _____    __    __             
                 |  |  |  | |  | |    /  \     |  _  \  |  |  /  |          
                  \  \/   | |  | |   /    \    | | | |  |  | /  /          
                 / \  \   | |__| |  /  /\  \   | |_| |  |  |/  /          
                |  |  |   |  __  | /  /__\  \  |    /   |      \           
                |  |  |   | |  | | |   __   |  |    \   |  |\   \          
                \     /   | |  | | |  |  |  |  | |\  \  |  | \   \       
                 \___/    |_|  |_| |__|  |__|  |_| \__\ |__|  \__/        
                                                                              
                      - O R C A' S   B I G   F R I E N D -                    
                                      &                                       
                       - I N T E G R A L  F E E D E R -                       
                                                                              
 v1 FN, 2020, v2 2021                                                         
------------------------------------------------------------------------------


Reading SHARK input file AsCl5_ts_opt.SHARKINP.tmp ... ok
----------------------
SHARK INTEGRAL PACKAGE
----------------------

Number of atoms                             ...      6
Number of basis functions                   ...    233
Number of shells                            ...     81
Maximum angular momentum                    ...      3
Integral batch strategy                     ... SHARK/LIBINT Hybrid
RI-J (if used) integral strategy            ... SPLIT-RIJ (Revised 2003 algorithm where possible)
Printlevel                                  ...      1
Contraction scheme used                     ... SEGMENTED contraction
Coulomb Range Separation                    ... NOT USED
Exchange Range Separation                   ... NOT USED
Finite Nucleus Model                        ... NOT USED
Auxiliary Coulomb fitting basis             ... AVAILABLE
   # of basis functions in Aux-J            ...    313
   # of shells in Aux-J                     ...    103
   Maximum angular momentum in Aux-J        ...      4
Auxiliary J/K fitting basis                 ... NOT available
Auxiliary Correlation fitting basis         ... NOT available
Auxiliary 'external' fitting basis          ... NOT available
Integral threshold                          ...     2.500000e-11
Primitive cut-off                           ...     2.500000e-12
Primitive pair pre-selection threshold      ...     2.500000e-12

Calculating pre-screening integrals         ... done (  0.1 sec) Dimension = 81
Organizing shell pair data                  ... done (  0.1 sec)
Shell pair information
Total number of shell pairs                 ...      3321
Shell pairs after pre-screening             ...      2833
Total number of primitive shell pairs       ...     15471
Primitive shell pairs kept                  ...      8646
          la=0 lb=0:    360 shell pairs
          la=1 lb=0:    735 shell pairs
          la=1 lb=1:    389 shell pairs
          la=2 lb=0:    393 shell pairs
          la=2 lb=1:    400 shell pairs
          la=2 lb=2:    105 shell pairs
          la=3 lb=0:    174 shell pairs
          la=3 lb=1:    172 shell pairs
          la=3 lb=2:     84 shell pairs
          la=3 lb=3:     21 shell pairs

Calculating one electron integrals          ... done (  0.0 sec)
Calculating RI/J V-Matrix + Cholesky decomp.... done (  0.0 sec)
Calculating Nuclear repulsion               ... done (  0.0 sec) ENN=   1167.531177230221 Eh

SHARK setup successfully completed in   0.4 seconds

Maximum memory used throughout the entire GTOINT-calculation: 88.5 MB
-------------------------------------------------------------------------------
                                 ORCA SCF
-------------------------------------------------------------------------------

------------
SCF SETTINGS
------------
Hamiltonian:
 Density Functional     Method          .... DFT(GTOs)
 Exchange Functional    Exchange        .... PBE
   PBE kappa parameter   XKappa         ....  0.804000
   PBE mue parameter    XMuePBE         ....  0.219520
 Correlation Functional Correlation     .... PBE
   PBE beta parameter  CBetaPBE         ....  0.066725
 LDA part of GGA corr.  LDAOpt          .... PW91-LDA
 Gradients option       PostSCFGGA      .... off
   Density functional embedding theory  .... OFF
   NL short-range parameter             ....  6.400000
 RI-approximation to the Coulomb term is turned on
   Number of AuxJ basis functions       .... 313


General Settings:
 Integral files         IntName         .... AsCl5_ts_opt
 Hartree-Fock type      HFTyp           .... RHF
 Total Charge           Charge          ....    0
 Multiplicity           Mult            ....    1
 Number of Electrons    NEL             ....  118
 Basis Dimension        Dim             ....  233
 Nuclear Repulsion      ENuc            ....   1167.5311772302 Eh

Convergence Acceleration:
 DIIS                   CNVDIIS         .... on
   Start iteration      DIISMaxIt       ....    12
   Startup error        DIISStart       ....  0.200000
   # of expansion vecs  DIISMaxEq       ....     5
   Bias factor          DIISBfac        ....   1.050
   Max. coefficient     DIISMaxC        ....  10.000
 Trust-Rad. Augm. Hess. CNVTRAH         .... auto
   Auto Start mean grad. ratio tolernc. ....  1.125000
   Auto Start start iteration           ....    20
   Auto Start num. interpolation iter.  ....    10
   Max. Number of Micro iterations      ....    16
   Max. Number of Macro iterations      .... Maxiter - #DIIS iter
   Number of Davidson start vectors     ....     2
   Converg. threshold I  (grad. norm)   ....   1.000e-05
   Converg. threshold II (energy diff.) ....   1.000e-08
   Grad. Scal. Fac. for Micro threshold ....   0.100
   Minimum threshold for Micro iter.    ....   0.010
   NR start threshold (gradient norm)   ....   0.001
   Initial trust radius                 ....   0.400
   Minimum AH scaling param. (alpha)    ....   1.000
   Maximum AH scaling param. (alpha)    .... 1000.000
   Orbital update algorithm             .... Taylor
   White noise on init. David. guess    .... on
   Maximum white noise                  ....   0.010
   Quad. conv. algorithm                .... NR
 SOSCF                  CNVSOSCF        .... on
   Start iteration      SOSCFMaxIt      ....   150
   Startup grad/error   SOSCFStart      ....  0.003300
 Level Shifting         CNVShift        .... on
   Level shift para.    LevelShift      ....    0.2500
   Turn off err/grad.   ShiftErr        ....    0.0010
 Zerner damping         CNVZerner       .... off
 Static damping         CNVDamp         .... on
   Fraction old density DampFac         ....    0.7000
   Max. Damping (<1)    DampMax         ....    0.9800
   Min. Damping (>=0)   DampMin         ....    0.0000
   Turn off err/grad.   DampErr         ....    0.1000
 Fernandez-Rico         CNVRico         .... off

SCF Procedure:
 Maximum # iterations   MaxIter         ....   125
 SCF integral mode      SCFMode         .... Direct
   Integral package                     .... SHARK and LIBINT hybrid scheme
 Reset frequency        DirectResetFreq ....    20
 Integral Threshold     Thresh          ....  2.500e-11 Eh
 Primitive CutOff       TCut            ....  2.500e-12 Eh

Convergence Tolerance:
 Convergence Check Mode ConvCheckMode   .... Total+1el-Energy
 Convergence forced     ConvForced      .... 0
 Energy Change          TolE            ....  1.000e-08 Eh
 1-El. energy change                    ....  1.000e-05 Eh
 Orbital Gradient       TolG            ....  1.000e-05
 Orbital Rotation angle TolX            ....  1.000e-05
 DIIS Error             TolErr          ....  5.000e-07


Diagonalization of the overlap matrix:
Smallest eigenvalue                        ... 2.918e-03
Time for diagonalization                   ...    0.008 sec
Threshold for overlap eigenvalues          ... 1.000e-08
Number of eigenvalues below threshold      ... 0
Time for construction of square roots      ...    0.006 sec
Total time needed                          ...    0.015 sec

Time for model grid setup =    0.137 sec

------------------------------
INITIAL GUESS: MODEL POTENTIAL
------------------------------
Loading Hartree-Fock densities                     ... done
Calculating cut-offs                               ... done
Initializing the effective Hamiltonian             ... done
Setting up the integral package (SHARK)            ... done
Starting the Coulomb interaction                   ... done (   0.2 sec)
Reading the grid                                   ... done
Mapping shells                                     ... done
Starting the XC term evaluation                    ... done (   0.4 sec)
  promolecular density results
     # of electrons  =    118.000455578
     EX              =   -218.277002890
     EC              =     -4.991627115
     EX+EC           =   -223.268630005
Transforming the Hamiltonian                       ... done (   0.0 sec)
Diagonalizing the Hamiltonian                      ... done (   0.0 sec)
Back transforming the eigenvectors                 ... done (   0.0 sec)
Now organizing SCF variables                       ... done
                      ------------------
                      INITIAL GUESS DONE (   0.7 sec)
                      ------------------
-------------------
DFT GRID GENERATION
-------------------

General Integration Accuracy     IntAcc      ... 4.388
Radial Grid Type                 RadialGrid  ... OptM3 with GC (2021)
Angular Grid (max. ang.)         AngularGrid ... 4 (Lebedev-302)
Angular grid pruning method      GridPruning ... 4 (adaptive)
Weight generation scheme         WeightScheme... Becke
Basis function cutoff            BFCut       ... 1.0000e-11
Integration weight cutoff        WCut        ... 1.0000e-14
Angular grids for H and He will be reduced by one unit
Partially contracted basis set               ... off
Rotationally invariant grid construction     ... off

Total number of grid points                  ...    48005
Total number of batches                      ...      752
Average number of points per batch           ...       63
Average number of grid points per atom       ...     8001
Time for grid setup =    0.569 sec

--------------
SCF ITERATIONS
--------------
ITER       Energy         Delta-E        Max-DP      RMS-DP      [F,P]     Damp
               ***  Starting incremental Fock matrix formation  ***
  0  -4535.5514805740   0.000000000000 0.17527268  0.00137755  0.1542146 0.7000
  1  -4535.6148176118  -0.063337037789 0.09382342  0.00080830  0.0495945 0.7000
                               ***Turning on DIIS***
  2  -4535.6305115913  -0.015693979472 0.05799046  0.00090427  0.0136115 0.0000
  3  -4535.6628392964  -0.032327705158 0.06443215  0.00058284  0.0371520 0.0000
  4  -4535.6690572721  -0.006217975653 0.00808145  0.00015951  0.0137467 0.0000
  5  -4535.6703566319  -0.001299359787 0.00313339  0.00006146  0.0037699 0.0000
                      *** Initiating the SOSCF procedure ***
                           *** Shutting down DIIS ***
                      *** Re-Reading the Fockian *** 
                      *** Removing any level shift *** 
ITER      Energy       Delta-E        Grad      Rot      Max-DP    RMS-DP
  6  -4535.67047569  -0.0001190627  0.000661  0.000661  0.001709  0.000027
               *** Restarting incremental Fock matrix formation ***
  7  -4535.67049386  -0.0000181612  0.000275  0.002459  0.001405  0.000032
  8  -4535.67049596  -0.0000021025  0.000359  0.000741  0.000864  0.000013
  9  -4535.67049651  -0.0000005492  0.000266  0.000662  0.000512  0.000012
 10  -4535.67049768  -0.0000011771  0.000148  0.000105  0.000204  0.000003
 11  -4535.67049777  -0.0000000837  0.000075  0.000270  0.000093  0.000003
 12  -4535.67049783  -0.0000000641  0.000033  0.000141  0.000131  0.000002
 13  -4535.67049782   0.0000000094  0.000051  0.000033  0.000095  0.000001
 14  -4535.67049785  -0.0000000297  0.000007  0.000024  0.000027  0.000001
 15  -4535.67049786  -0.0000000087  0.000009  0.000013  0.000018  0.000000
                  ***Gradient check signals convergence***
              ***Rediagonalizing the Fockian in SOSCF/NRSCF***

               *****************************************************
               *                     SUCCESS                       *
               *           SCF CONVERGED AFTER  16 CYCLES          *
               *****************************************************


----------------
TOTAL SCF ENERGY
----------------

Total Energy       :        -4535.67049784 Eh         -123421.86889 eV

Components:
Nuclear Repulsion  :         1167.53117723 Eh           31770.13850 eV
Electronic Energy  :        -5703.20167507 Eh         -155192.00739 eV
One Electron Energy:        -8619.43046487 Eh         -234546.62707 eV
Two Electron Energy:         2916.22878980 Eh           79354.61968 eV

Virial components:
Potential Energy   :        -9065.43648205 Eh         -246683.06780 eV
Kinetic Energy     :         4529.76598421 Eh          123261.19891 eV
Virial Ratio       :            2.00130349


DFT components:
N(Alpha)           :       58.999993896929 electrons
N(Beta)            :       58.999993896929 electrons
N(Total)           :      117.999987793857 electrons
E(X)               :     -218.255965660316 Eh       
E(C)               :       -4.984559517835 Eh       
E(XC)              :     -223.240525178151 Eh       
DFET-embed. en.    :        0.000000000000 Eh       

---------------
SCF CONVERGENCE
---------------

  Last Energy change         ...    2.0516e-08  Tolerance :   1.0000e-08
  Last MAX-Density change    ...    4.0080e-06  Tolerance :   1.0000e-07
  Last RMS-Density change    ...    7.3600e-08  Tolerance :   5.0000e-09
  Last Orbital Gradient      ...    9.0079e-07  Tolerance :   1.0000e-05
  Last Orbital Rotation      ...    3.6465e-06  Tolerance :   1.0000e-05

             **** THE GBW FILE WAS UPDATED (AsCl5_ts_opt.gbw) ****
             **** DENSITY AsCl5_ts_opt.scfp WAS UPDATED ****
             **** ENERGY FILE WAS UPDATED (AsCl5_ts_opt.en.tmp) ****
             **** THE GBW FILE WAS UPDATED (AsCl5_ts_opt.gbw) ****
             **** DENSITY AsCl5_ts_opt.scfp WAS UPDATED ****
----------------
ORBITAL ENERGIES
----------------

  NO   OCC          E(Eh)            E(eV) 
   0   2.0000    -424.292415    -11545.5836 
   1   2.0000    -100.709966     -2740.4575 
   2   2.0000    -100.709955     -2740.4572 
   3   2.0000    -100.665554     -2739.2490 
   4   2.0000    -100.665549     -2739.2489 
   5   2.0000    -100.647260     -2738.7512 
   6   2.0000     -53.359995     -1451.9993 
   7   2.0000     -47.742552     -1299.1409 
   8   2.0000     -47.741842     -1299.1216 
   9   2.0000     -47.741668     -1299.1168 
  10   2.0000      -9.223931      -250.9959 
  11   2.0000      -9.223902      -250.9951 
  12   2.0000      -9.181752      -249.8482 
  13   2.0000      -9.181738      -249.8478 
  14   2.0000      -9.165405      -249.4034 
  15   2.0000      -7.047369      -191.7687 
  16   2.0000      -7.047363      -191.7685 
  17   2.0000      -7.037696      -191.5054 
  18   2.0000      -7.037694      -191.5054 
  19   2.0000      -7.036441      -191.4713 
  20   2.0000      -7.036438      -191.4712 
  21   2.0000      -7.004767      -190.6094 
  22   2.0000      -7.004762      -190.6093 
  23   2.0000      -6.995043      -190.3448 
  24   2.0000      -6.995040      -190.3447 
  25   2.0000      -6.994491      -190.3298 
  26   2.0000      -6.994491      -190.3298 
  27   2.0000      -6.987675      -190.1443 
  28   2.0000      -6.979685      -189.9269 
  29   2.0000      -6.977323      -189.8626 
  30   2.0000      -6.894519      -187.6094 
  31   2.0000      -4.997932      -136.0006 
  32   2.0000      -4.996602      -135.9644 
  33   2.0000      -4.995165      -135.9253 
  34   2.0000      -1.670474       -45.4559 
  35   2.0000      -1.669377       -45.4261 
  36   2.0000      -1.668467       -45.4013 
  37   2.0000      -1.668228       -45.3948 
  38   2.0000      -1.667120       -45.3646 
  39   2.0000      -0.867802       -23.6141 
  40   2.0000      -0.799837       -21.7647 
  41   2.0000      -0.780957       -21.2509 
  42   2.0000      -0.772853       -21.0304 
  43   2.0000      -0.722614       -19.6633 
  44   2.0000      -0.591486       -16.0951 
  45   2.0000      -0.457665       -12.4537 
  46   2.0000      -0.438012       -11.9189 
  47   2.0000      -0.429730       -11.6936 
  48   2.0000      -0.364976        -9.9315 
  49   2.0000      -0.356998        -9.7144 
  50   2.0000      -0.349883        -9.5208 
  51   2.0000      -0.337696        -9.1892 
  52   2.0000      -0.324834        -8.8392 
  53   2.0000      -0.315536        -8.5862 
  54   2.0000      -0.304760        -8.2929 
  55   2.0000      -0.282799        -7.6954 
  56   2.0000      -0.277322        -7.5463 
  57   2.0000      -0.274601        -7.4723 
  58   2.0000      -0.217753        -5.9254 
  59   0.0000      -0.213035        -5.7970 
  60   0.0000      -0.087941        -2.3930 
  61   0.0000      -0.044225        -1.2034 
  62   0.0000      -0.041234        -1.1220 
  63   0.0000       0.111782         3.0417 
  64   0.0000       0.118012         3.2113 
  65   0.0000       0.132803         3.6137 
  66   0.0000       0.154774         4.2116 
  67   0.0000       0.173635         4.7249 
  68   0.0000       0.178132         4.8472 
  69   0.0000       0.188719         5.1353 
  70   0.0000       0.204432         5.5629 
  71   0.0000       0.236694         6.4408 
  72   0.0000       0.239901         6.5280 
  73   0.0000       0.240969         6.5571 
  74   0.0000       0.248767         6.7693 
  75   0.0000       0.254162         6.9161 
  76   0.0000       0.257052         6.9947 
  77   0.0000       0.261713         7.1216 
  78   0.0000       0.267403         7.2764 
  79   0.0000       0.280059         7.6208 
  80   0.0000       0.281408         7.6575 
  81   0.0000       0.288053         7.8383 
  82   0.0000       0.292804         7.9676 
  83   0.0000       0.306098         8.3294 
  84   0.0000       0.310327         8.4444 
  85   0.0000       0.312432         8.5017 
  86   0.0000       0.340025         9.2526 
  87   0.0000       0.341621         9.2960 
  88   0.0000       0.344686         9.3794 
  89   0.0000       0.362594         9.8667 
  90   0.0000       0.370956        10.0942 
  91   0.0000       0.376481        10.2446 
  92   0.0000       0.386881        10.5276 
  93   0.0000       0.388575        10.5737 
  94   0.0000       0.405997        11.0477 
  95   0.0000       0.429498        11.6872 
  96   0.0000       0.453606        12.3432 
  97   0.0000       0.493471        13.4280 
  98   0.0000       0.508023        13.8240 
  99   0.0000       0.508958        13.8494 
 100   0.0000       0.512398        13.9431 
 101   0.0000       0.530439        14.4340 
 102   0.0000       0.572307        15.5733 
 103   0.0000       0.580673        15.8009 
 104   0.0000       0.625222        17.0132 
 105   0.0000       0.626847        17.0574 
 106   0.0000       0.652785        17.7632 
 107   0.0000       0.713893        19.4260 
 108   0.0000       0.730824        19.8867 
 109   0.0000       0.733586        19.9619 
 110   0.0000       0.751107        20.4387 
 111   0.0000       0.758769        20.6472 
 112   0.0000       0.899963        24.4892 
 113   0.0000       0.955100        25.9896 
 114   0.0000       0.970220        26.4010 
 115   0.0000       1.003511        27.3069 
 116   0.0000       1.018473        27.7140 
 117   0.0000       1.023934        27.8627 
 118   0.0000       1.062777        28.9196 
 119   0.0000       1.088077        29.6081 
 120   0.0000       1.089299        29.6413 
 121   0.0000       1.119373        30.4597 
 122   0.0000       1.155531        31.4436 
 123   0.0000       1.206780        32.8382 
 124   0.0000       1.244033        33.8519 
 125   0.0000       1.270075        34.5605 
 126   0.0000       1.275935        34.7200 
 127   0.0000       1.354991        36.8712 
 128   0.0000       1.426791        38.8250 
 129   0.0000       1.577659        42.9303 
 130   0.0000       1.591111        43.2963 
 131   0.0000       1.613520        43.9061 
 132   0.0000       1.619865        44.0788 
 133   0.0000       1.631426        44.3934 
 134   0.0000       1.651202        44.9315 
 135   0.0000       1.651370        44.9361 
 136   0.0000       1.663691        45.2713 
 137   0.0000       1.692678        46.0601 
 138   0.0000       1.708061        46.4787 
 139   0.0000       1.721955        46.8568 
 140   0.0000       1.729435        47.0603 
 141   0.0000       1.732014        47.1305 
 142   0.0000       1.738874        47.3172 
 143   0.0000       1.740419        47.3592 
 144   0.0000       1.742688        47.4210 
 145   0.0000       1.766427        48.0669 
 146   0.0000       1.769556        48.1521 
 147   0.0000       1.781166        48.4680 
 148   0.0000       1.785121        48.5756 
 149   0.0000       1.795153        48.8486 
 150   0.0000       1.810611        49.2692 
 151   0.0000       1.824081        49.6358 
 152   0.0000       1.859063        50.5877 
 153   0.0000       1.863996        50.7219 
 154   0.0000       1.900854        51.7249 
 155   0.0000       1.924696        52.3736 
 156   0.0000       1.928455        52.4759 
 157   0.0000       1.951712        53.1088 
 158   0.0000       1.954251        53.1779 
 159   0.0000       1.957842        53.2756 
 160   0.0000       1.960650        53.3520 
 161   0.0000       1.962061        53.3904 
 162   0.0000       1.969913        53.6041 
 163   0.0000       1.974115        53.7184 
 164   0.0000       1.978559        53.8393 
 165   0.0000       1.983939        53.9857 
 166   0.0000       1.986871        54.0655 
 167   0.0000       1.992179        54.2100 
 168   0.0000       1.995300        54.2949 
 169   0.0000       1.999217        54.4015 
 170   0.0000       2.023960        55.0747 
 171   0.0000       2.025230        55.1093 
 172   0.0000       2.055994        55.9464 
 173   0.0000       2.087345        56.7995 
 174   0.0000       2.093867        56.9770 
 175   0.0000       2.108192        57.3668 
 176   0.0000       2.113425        57.5092 
 177   0.0000       2.121981        57.7420 
 178   0.0000       2.124659        57.8149 
 179   0.0000       2.127367        57.8886 
 180   0.0000       2.137025        58.1514 
 181   0.0000       2.142405        58.2978 
 182   0.0000       2.154468        58.6260 
 183   0.0000       2.166186        58.9449 
 184   0.0000       2.169240        59.0280 
 185   0.0000       2.175974        59.2113 
 186   0.0000       2.191636        59.6374 
 187   0.0000       2.191805        59.6420 
 188   0.0000       2.234021        60.7908 
 189   0.0000       2.234869        60.8139 
 190   0.0000       2.265903        61.6584 
 191   0.0000       2.286586        62.2212 
 192   0.0000       2.329767        63.3962 
 193   0.0000       2.387921        64.9786 
 194   0.0000       2.390854        65.0584 
 195   0.0000       2.395344        65.1806 
 196   0.0000       2.450806        66.6898 
 197   0.0000       2.483599        67.5822 
 198   0.0000       2.528131        68.7939 
 199   0.0000       2.533254        68.9334 
 200   0.0000       2.566130        69.8279 
 201   0.0000       2.617551        71.2272 
 202   0.0000       2.795919        76.0808 
 203   0.0000       2.896849        78.8273 
 204   0.0000       3.065838        83.4257 
 205   0.0000       3.106031        84.5194 
 206   0.0000       3.108015        84.5734 
 207   0.0000       3.186285        86.7032 
 208   0.0000       3.609643        98.2234 
 209   0.0000       3.664111        99.7055 
 210   0.0000       3.772155       102.6456 
 211   0.0000       4.054884       110.3390 
 212   0.0000       5.901440       160.5864 
 213   0.0000      10.478285       285.1286 
 214   0.0000      10.478671       285.1391 
 215   0.0000      10.479941       285.1737 
 216   0.0000      10.484718       285.3037 
 217   0.0000      10.493061       285.5307 
 218   0.0000      10.528756       286.5020 
 219   0.0000      10.532312       286.5988 
 220   0.0000      10.550987       287.1070 
 221   0.0000      10.599574       288.4291 
 222   0.0000      10.631975       289.3107 
 223   0.0000      10.805190       294.0242 
 224   0.0000      10.851068       295.2726 
 225   0.0000      10.871277       295.8225 
 226   0.0000      10.933146       297.5060 
 227   0.0000      10.984748       298.9102 
 228   0.0000      24.460414       665.6017 
 229   0.0000      24.542524       667.8360 
 230   0.0000      24.937687       678.5890 
 231   0.0000      25.062299       681.9798 
 232   0.0000      25.101142       683.0368 

                    ********************************
                    * MULLIKEN POPULATION ANALYSIS *
                    ********************************

-----------------------
MULLIKEN ATOMIC CHARGES
-----------------------
   0 As:    0.754574
   1 Cl:   -0.187186
   2 Cl:   -0.109535
   3 Cl:   -0.109535
   4 Cl:   -0.174159
   5 Cl:   -0.174159
Sum of atomic charges:    0.0000000

--------------------------------
MULLIKEN REDUCED ORBITAL CHARGES
--------------------------------
  0 Ass       :     7.375367  s :     7.375367
      pz      :     4.720088  p :    14.125005
      px      :     4.674469
      py      :     4.730448
      dz2     :     2.180526  d :    10.649056
      dxz     :     2.143920
      dyz     :     2.092130
      dx2y2   :     2.095208
      dxy     :     2.137272
      f0      :     0.019046  f :     0.095998
      f+1     :     0.016584
      f-1     :     0.018220
      f+2     :     0.009829
      f-2     :     0.004212
      f+3     :     0.016313
      f-3     :     0.011794
  1 Cls       :     5.933057  s :     5.933057
      pz      :     3.945509  p :    11.172119
      px      :     3.864496
      py      :     3.362115
      dz2     :     0.021252  d :     0.077203
      dxz     :     0.003875
      dyz     :     0.022214
      dx2y2   :     0.020004
      dxy     :     0.009859
      f0      :     0.000407  f :     0.004806
      f+1     :     0.000132
      f-1     :     0.001658
      f+2     :     0.000696
      f-2     :     0.000204
      f+3     :     0.000684
      f-3     :     0.001024
  2 Cls       :     5.956518  s :     5.956518
      pz      :     3.922722  p :    11.105591
      px      :     3.321255
      py      :     3.861615
      dz2     :     0.007791  d :     0.044436
      dxz     :     0.008517
      dyz     :     0.001679
      dx2y2   :     0.016941
      dxy     :     0.009509
      f0      :     0.000261  f :     0.002990
      f+1     :     0.000663
      f-1     :     0.000106
      f+2     :     0.000322
      f-2     :     0.000132
      f+3     :     0.000817
      f-3     :     0.000689
  3 Cls       :     5.956517  s :     5.956517
      pz      :     3.922722  p :    11.105591
      px      :     3.321255
      py      :     3.861615
      dz2     :     0.007791  d :     0.044436
      dxz     :     0.008517
      dyz     :     0.001679
      dx2y2   :     0.016941
      dxy     :     0.009509
      f0      :     0.000261  f :     0.002990
      f+1     :     0.000663
      f-1     :     0.000106
      f+2     :     0.000322
      f-2     :     0.000132
      f+3     :     0.000817
      f-3     :     0.000689
  4 Cls       :     5.947604  s :     5.947604
      pz      :     3.446068  p :    11.160813
      px      :     3.910356
      py      :     3.804388
      dz2     :     0.022365  d :     0.061893
      dxz     :     0.008990
      dyz     :     0.023517
      dx2y2   :     0.004252
      dxy     :     0.002769
      f0      :     0.001209  f :     0.003850
      f+1     :     0.000543
      f-1     :     0.001369
      f+2     :     0.000402
      f-2     :     0.000260
      f+3     :     0.000025
      f-3     :     0.000041
  5 Cls       :     5.947604  s :     5.947604
      pz      :     3.446068  p :    11.160813
      px      :     3.910356
      py      :     3.804388
      dz2     :     0.022365  d :     0.061893
      dxz     :     0.008990
      dyz     :     0.023517
      dx2y2   :     0.004252
      dxy     :     0.002769
      f0      :     0.001209  f :     0.003850
      f+1     :     0.000543
      f-1     :     0.001369
      f+2     :     0.000402
      f-2     :     0.000260
      f+3     :     0.000025
      f-3     :     0.000041


                     *******************************
                     * LOEWDIN POPULATION ANALYSIS *
                     *******************************

----------------------
LOEWDIN ATOMIC CHARGES
----------------------
   0 As:   -0.486827
   1 Cl:    0.063709
   2 Cl:    0.149686
   3 Cl:    0.149686
   4 Cl:    0.061873
   5 Cl:    0.061873

-------------------------------
LOEWDIN REDUCED ORBITAL CHARGES
-------------------------------
  0 Ass       :     7.065207  s :     7.065207
      pz      :     4.845991  p :    14.483009
      px      :     4.817157
      py      :     4.819861
      dz2     :     2.561458  d :    11.663414
      dxz     :     2.254935
      dyz     :     2.200993
      dx2y2   :     2.364593
      dxy     :     2.281434
      f0      :     0.055322  f :     0.275197
      f+1     :     0.045197
      f-1     :     0.059157
      f+2     :     0.022590
      f-2     :     0.009551
      f+3     :     0.044388
      f-3     :     0.038992
  1 Cls       :     5.684668  s :     5.684668
      pz      :     3.893932  p :    11.111580
      px      :     3.816033
      py      :     3.401615
      dz2     :     0.034632  d :     0.130551
      dxz     :     0.005109
      dyz     :     0.042625
      dx2y2   :     0.037234
      dxy     :     0.010952
      f0      :     0.000728  f :     0.009492
      f+1     :     0.000238
      f-1     :     0.003362
      f+2     :     0.001471
      f-2     :     0.000262
      f+3     :     0.000884
      f-3     :     0.002547
  2 Cls       :     5.724261  s :     5.724261
      pz      :     3.881500  p :    11.050966
      px      :     3.354918
      py      :     3.814547
      dz2     :     0.012951  d :     0.069386
      dxz     :     0.010683
      dyz     :     0.002015
      dx2y2   :     0.030289
      dxy     :     0.013448
      f0      :     0.000343  f :     0.005701
      f+1     :     0.001443
      f-1     :     0.000174
      f+2     :     0.000454
      f-2     :     0.000192
      f+3     :     0.001780
      f-3     :     0.001315
  3 Cls       :     5.724261  s :     5.724261
      pz      :     3.881500  p :    11.050966
      px      :     3.354918
      py      :     3.814547
      dz2     :     0.012951  d :     0.069386
      dxz     :     0.010683
      dyz     :     0.002015
      dx2y2   :     0.030289
      dxy     :     0.013448
      f0      :     0.000343  f :     0.005701
      f+1     :     0.001443
      f-1     :     0.000174
      f+2     :     0.000454
      f-2     :     0.000192
      f+3     :     0.001780
      f-3     :     0.001315
  4 Cls       :     5.717568  s :     5.717568
      pz      :     3.466443  p :    11.110252
      px      :     3.869461
      py      :     3.774347
      dz2     :     0.042177  d :     0.102761
      dxz     :     0.010883
      dyz     :     0.039374
      dx2y2   :     0.007002
      dxy     :     0.003324
      f0      :     0.002932  f :     0.007547
      f+1     :     0.000755
      f-1     :     0.002653
      f+2     :     0.000747
      f-2     :     0.000324
      f+3     :     0.000046
      f-3     :     0.000090
  5 Cls       :     5.717568  s :     5.717568
      pz      :     3.466443  p :    11.110252
      px      :     3.869461
      py      :     3.774347
      dz2     :     0.042177  d :     0.102761
      dxz     :     0.010883
      dyz     :     0.039374
      dx2y2   :     0.007002
      dxy     :     0.003324
      f0      :     0.002932  f :     0.007547
      f+1     :     0.000755
      f-1     :     0.002653
      f+2     :     0.000747
      f-2     :     0.000324
      f+3     :     0.000046
      f-3     :     0.000090


                      *****************************
                      * MAYER POPULATION ANALYSIS *
                      *****************************

  NA   - Mulliken gross atomic population
  ZA   - Total nuclear charge
  QA   - Mulliken gross atomic charge
  VA   - Mayer's total valence
  BVA  - Mayer's bonded valence
  FA   - Mayer's free valence

  ATOM       NA         ZA         QA         VA         BVA        FA
  0 As    32.2454    33.0000     0.7546     5.0528     5.0528    -0.0000
  1 Cl    17.1872    17.0000    -0.1872     1.1695     1.1695    -0.0000
  2 Cl    17.1095    17.0000    -0.1095     1.2859     1.2859     0.0000
  3 Cl    17.1095    17.0000    -0.1095     1.2859     1.2859    -0.0000
  4 Cl    17.1742    17.0000    -0.1742     1.1926     1.1926    -0.0000
  5 Cl    17.1742    17.0000    -0.1742     1.1926     1.1926    -0.0000

  Mayer bond orders larger than 0.100000
B(  0-As,  1-Cl) :   1.0393 B(  0-As,  2-Cl) :   1.0384 B(  0-As,  3-Cl) :   1.0384 
B(  0-As,  4-Cl) :   0.9683 B(  0-As,  5-Cl) :   0.9683 

-------
TIMINGS
-------

Total SCF time: 0 days 0 hours 0 min 17 sec 

Total time                  ....      17.617 sec
Sum of individual times     ....      17.232 sec  ( 97.8%)

Fock matrix formation       ....      15.681 sec  ( 89.0%)
  Split-RI-J                ....       5.102 sec  ( 32.5% of F)
  XC integration            ....      10.495 sec  ( 66.9% of F)
    Basis function eval.    ....       3.382 sec  ( 32.2% of XC)
    Density eval.           ....       3.092 sec  ( 29.5% of XC)
    XC-Functional eval.     ....       0.455 sec  (  4.3% of XC)
    XC-Potential eval.      ....       2.991 sec  ( 28.5% of XC)
Diagonalization             ....       0.073 sec  (  0.4%)
Density matrix formation    ....       0.022 sec  (  0.1%)
Population analysis         ....       0.019 sec  (  0.1%)
Initial guess               ....       0.556 sec  (  3.2%)
Orbital Transformation      ....       0.000 sec  (  0.0%)
Orbital Orthonormalization  ....       0.000 sec  (  0.0%)
DIIS solution               ....       0.070 sec  (  0.4%)
SOSCF solution              ....       0.105 sec  (  0.6%)
Grid generation             ....       0.706 sec  (  4.0%)

Maximum memory used throughout the entire SCF-calculation: 104.3 MB

-------------------------   --------------------
FINAL SINGLE POINT ENERGY     -4535.670497840923
-------------------------   --------------------

------------------------------------------------------------------------------
                         ORCA SCF GRADIENT CALCULATION
------------------------------------------------------------------------------

Gradient of the Kohn-Sham DFT energy:
Kohn-Sham wavefunction type      ... RKS
Hartree-Fock exchange scaling    ...    0.000
Number of operators              ...    1
Number of atoms                  ...    6
Basis set dimensions             ...  233
Integral neglect threshold       ... 2.5e-11
Integral primitive cutoff        ... 2.5e-12
SHARK Integral package           ... ON

Nuc. rep. gradient       (SHARK) ... done (  0.0 sec)
HCore & Overlap gradient (SHARK) ... done (  0.1 sec)
RI-J gradient            (SHARK) ... done (  2.3 sec)
Exchange-correlation gradient    ... done

------------------
CARTESIAN GRADIENT
------------------

   1   As  :   -0.000000002   -0.045033744   -0.000000000
   2   Cl  :   -0.000000002   -0.077469988    0.000000000
   3   Cl  :   -0.004086045    0.018207204    0.000000000
   4   Cl  :    0.004086048    0.018207207    0.000000000
   5   Cl  :    0.000000000    0.043044659   -0.061473812
   6   Cl  :   -0.000000000    0.043044662    0.061473811

Difference to translation invariance:
           :   -0.0000000000    0.0000000000    0.0000000000

Difference to rotation invariance:
           :    0.0000000086    0.0000000024   -0.0000000023

Norm of the cartesian gradient     ...    0.1413852115
RMS gradient                       ...    0.0333248139
MAX gradient                       ...    0.0774699884

-------
TIMINGS
-------

Total SCF gradient time            ...        5.723 sec

One electron gradient       ....       0.142 sec  (  2.5%)
RI-J Coulomb gradient       ....       2.330 sec  ( 40.7%)
XC gradient                 ....       3.135 sec  ( 54.8%)

Maximum memory used throughout the entire SCFGRAD-calculation: 107.2 MB
------------------------------------------------------------------------------
                         ORCA GEOMETRY RELAXATION STEP
------------------------------------------------------------------------------

Reading the OPT-File                    .... done
Getting information on internals        .... done
Copying old internal coords+grads       .... done
Making the new internal coordinates     .... (new redundants).... done
Validating the new internal coordinates .... (new redundants).... done
Calculating the B-matrix                .... done
Calculating the G,G- and P matrices     .... done
Transforming gradient to internals      .... done
Projecting the internal gradient        .... done
Number of atoms                         ....   6
Number of internal coordinates          ....  15
Current Energy                          .... -4535.670497841 Eh
Current gradient norm                   ....     0.141385212 Eh/bohr
Maximum allowed component of the step   ....  0.300
Current trust radius                    ....  0.300
Evaluating the initial hessian          ....  (read) 
(Reading Exact Hessian)...  
InHessName: AsCl5_ts_guess.hess	The file <AsCl5_ts_guess.hess> is opened as a .hess file
done
done
Diagonalizing the Hessian               .... done
Dimension of the hessian                .... 15
Lowest eigenvalues of the non projected Hessian:
 -0.118022519 -0.000043194 -0.000000004  0.000055147  0.026069743
done
Projecting the Hessian                  .... done
Diagonalizing the Hessian               .... done
Dimension of the hessian                ....  15
Lowest eigenvalues of the Hessian:
 -0.118022022  0.026125566  0.106362194  0.112458746  0.114472371
Hessian has   1 negative eigenvalues
Taking P-RFO step
Searching for lambda that maximizes along the lowest mode
TS mode is mode number   0 with eigenvalue  -0.11802202 and components:
   1.    0.00000006
   2.   -0.02472196
   3.    0.02472211
   4.    0.00000010
   5.    0.00000010
   6.    0.60188867
   7.   -0.00000023
   8.   -0.00000005
   9.    0.26183879
  10.   -0.26183870
  11.   -0.00000005
  12.    0.26183865
  13.   -0.26183858
  14.   -0.00000010
  15.   -0.60188844

Lambda that maximizes along the TS mode:       0.00000000
Searching for lambda that minimizes along all other modes
In cycle   1: lambdaN =  -0.05645869   step =   0.05645869
In cycle   2: lambdaN =  -0.10026099   step =   0.04380230
In cycle   3: lambdaN =  -0.10321275   step =   0.00295176
In cycle   4: lambdaN =  -0.10321996   step =   0.00000722
In cycle   5: lambdaN =  -0.10321996   step =   0.00000000
Lambda that minimizes along all other modes:  -0.10321996
Calculated stepsize too large (   0.5017 >    0.3000). Scaled with    0.5980.
The final length of the internal step   ....       0.3000
Converting the step to cartesian space:
 Initial RMS(Int)=    0.0774596669
Transforming coordinates:
 Iter   0:  RMS(Cart)=    0.1079517634 RMS(Int)=    0.0782315406
 Iter   1:  RMS(Cart)=    0.0072382521 RMS(Int)=    0.0077179738
 Iter   2:  RMS(Cart)=    0.0004174117 RMS(Int)=    0.0003508459
 Iter   3:  RMS(Cart)=    0.0000595921 RMS(Int)=    0.0000621051
 Iter   4:  RMS(Cart)=    0.0000040580 RMS(Int)=    0.0000033120
 Iter   5:  RMS(Cart)=    0.0000005159 RMS(Int)=    0.0000005375
 Iter   6:  RMS(Cart)=    0.0000000395 RMS(Int)=    0.0000000300
done
Storing new coordinates                 .... done

                                .--------------------.
          ----------------------|Geometry convergence|-------------------------
          Item                value                   Tolerance       Converged
          ---------------------------------------------------------------------
          RMS gradient        0.0575625392            0.0001000000      NO
          MAX gradient        0.1518831839            0.0003000000      NO
          RMS step            0.0774596669            0.0020000000      NO
          MAX step            0.1794038896            0.0040000000      NO
          ........................................................
          Max(Bonds)      0.0233      Max(Angles)   10.28
          Max(Dihed)        0.00      Max(Improp)    0.00
          ---------------------------------------------------------------------

The optimization has not yet converged - more geometry cycles are needed


    ---------------------------------------------------------------------------
                         Redundant Internal Coordinates
                            (Angstroem and degrees)

        Definition                    Value    dE/dq     Step     New-Value  comp.(TS mode)
    ----------------------------------------------------------------------------
     1. B(Cl  1,As  0)                2.1060 -0.077470  0.0233    2.1293   
     2. B(Cl  2,As  0)                2.1565 -0.008659  0.0031    2.1596   
     3. B(Cl  3,As  0)                2.1565 -0.008659  0.0031    2.1596   
     4. B(Cl  4,As  0)                2.1565 -0.048239  0.0101    2.1665   
     5. B(Cl  5,As  0)                2.1565 -0.048239  0.0101    2.1665   
     6. A(Cl  1,As  0,Cl  3)          105.00 -0.024602    4.42    109.42          0.60
     7. A(Cl  2,As  0,Cl  3)          150.00  0.049204   -8.84    141.16   
     8. A(Cl  1,As  0,Cl  4)           75.00 -0.075942    5.62     80.63   
     9. A(Cl  2,As  0,Cl  4)           93.84  0.012863   -0.30     93.54          0.26
    10. A(Cl  3,As  0,Cl  4)           93.84  0.012863   -0.30     93.54          0.26
    11. A(Cl  1,As  0,Cl  5)           75.00 -0.075942    5.62     80.63   
    12. A(Cl  2,As  0,Cl  5)           93.84  0.012863   -0.30     93.54          0.26
    13. A(Cl  3,As  0,Cl  5)           93.84  0.012863   -0.30     93.54          0.26
    14. A(Cl  4,As  0,Cl  5)          150.00 -0.151883   10.28    160.28   
    15. A(Cl  1,As  0,Cl  2)          105.00 -0.024602    4.42    109.42          0.60
    ----------------------------------------------------------------------------

         *************************************************************
         *                GEOMETRY OPTIMIZATION CYCLE   2            *
         *************************************************************
---------------------------------
CARTESIAN COORDINATES (ANGSTROEM)
---------------------------------
  As    -0.000000    0.113770    0.000000
  Cl    -0.000000    2.243052   -0.000000
  Cl     2.036069   -0.606029    0.000000
  Cl    -2.036069   -0.606029    0.000000
  Cl     0.000000    0.480618    2.135238
  Cl     0.000000    0.480618   -2.135238

----------------------------
CARTESIAN COORDINATES (A.U.)
----------------------------
  NO LB      ZA    FRAG     MASS         X           Y           Z
   0 As   33.0000    0    74.920   -0.000000    0.214995    0.000000
   1 Cl   17.0000    0    35.453   -0.000000    4.238754   -0.000000
   2 Cl   17.0000    0    35.453    3.847613   -1.145229    0.000000
   3 Cl   17.0000    0    35.453   -3.847613   -1.145229    0.000000
   4 Cl   17.0000    0    35.453    0.000000    0.908236    4.035015
   5 Cl   17.0000    0    35.453    0.000000    0.908236   -4.035015

--------------------------------
INTERNAL COORDINATES (ANGSTROEM)
--------------------------------
 As     0   0   0     0.000000000000     0.00000000     0.00000000
 Cl     1   0   0     2.129281674475     0.00000000     0.00000000
 Cl     1   2   0     2.159557277820   109.46972630     0.00000000
 Cl     1   2   3     2.159557283592   109.46972057   180.00000000
 Cl     1   2   3     2.166522017919    80.25138538    89.99999799
 Cl     1   2   3     2.166522030733    80.25138501   270.00000226

---------------------------
INTERNAL COORDINATES (A.U.)
---------------------------
 As     0   0   0     0.000000000000     0.00000000     0.00000000
 Cl     1   0   0     4.023759226736     0.00000000     0.00000000
 Cl     1   2   0     4.080971825596   109.46972630     0.00000000
 Cl     1   2   3     4.080971836504   109.46972057   180.00000000
 Cl     1   2   3     4.094133276978    80.25138538    89.99999799
 Cl     1   2   3     4.094133301193    80.25138501   270.00000226

------------------------------------------------------------------------------
                   ___                                                        
                  /   \      - P O W E R E D   B Y -                         
                 /     \                                                     
                 |  |  |   _    _      __       _____    __    __             
                 |  |  |  | |  | |    /  \     |  _  \  |  |  /  |          
                  \  \/   | |  | |   /    \    | | | |  |  | /  /          
                 / \  \   | |__| |  /  /\  \   | |_| |  |  |/  /          
                |  |  |   |  __  | /  /__\  \  |    /   |      \           
                |  |  |   | |  | | |   __   |  |    \   |  |\   \          
                \     /   | |  | | |  |  |  |  | |\  \  |  | \   \       
                 \___/    |_|  |_| |__|  |__|  |_| \__\ |__|  \__/        
                                                                              
                      - O R C A' S   B I G   F R I E N D -                    
                                      &                                       
                       - I N T E G R A L  F E E D E R -                       
                                                                              
 v1 FN, 2020, v2 2021                                                         
------------------------------------------------------------------------------


Reading SHARK input file AsCl5_ts_opt.SHARKINP.tmp ... ok
----------------------
SHARK INTEGRAL PACKAGE
----------------------

Number of atoms                             ...      6
Number of basis functions                   ...    233
Number of shells                            ...     81
Maximum angular momentum                    ...      3
Integral batch strategy                     ... SHARK/LIBINT Hybrid
RI-J (if used) integral strategy            ... SPLIT-RIJ (Revised 2003 algorithm where possible)
Printlevel                                  ...      1
Contraction scheme used                     ... SEGMENTED contraction
Coulomb Range Separation                    ... NOT USED
Exchange Range Separation                   ... NOT USED
Finite Nucleus Model                        ... NOT USED
Auxiliary Coulomb fitting basis             ... AVAILABLE
   # of basis functions in Aux-J            ...    313
   # of shells in Aux-J                     ...    103
   Maximum angular momentum in Aux-J        ...      4
Auxiliary J/K fitting basis                 ... NOT available
Auxiliary Correlation fitting basis         ... NOT available
Auxiliary 'external' fitting basis          ... NOT available
Integral threshold                          ...     2.500000e-11
Primitive cut-off                           ...     2.500000e-12
Primitive pair pre-selection threshold      ...     2.500000e-12

Calculating pre-screening integrals         ... done (  0.1 sec) Dimension = 81
Organizing shell pair data                  ... done (  0.1 sec)
Shell pair information
Total number of shell pairs                 ...      3321
Shell pairs after pre-screening             ...      2807
Total number of primitive shell pairs       ...     15471
Primitive shell pairs kept                  ...      8559
          la=0 lb=0:    356 shell pairs
          la=1 lb=0:    716 shell pairs
          la=1 lb=1:    390 shell pairs
          la=2 lb=0:    393 shell pairs
          la=2 lb=1:    394 shell pairs
          la=2 lb=2:    105 shell pairs
          la=3 lb=0:    176 shell pairs
          la=3 lb=1:    172 shell pairs
          la=3 lb=2:     84 shell pairs
          la=3 lb=3:     21 shell pairs

Calculating one electron integrals          ... done (  0.0 sec)
Calculating RI/J V-Matrix + Cholesky decomp.... done (  0.0 sec)
Calculating Nuclear repulsion               ... done (  0.0 sec) ENN=   1154.154237427482 Eh

SHARK setup successfully completed in   0.4 seconds

Maximum memory used throughout the entire GTOINT-calculation: 88.3 MB

Diagonalization of the overlap matrix:
Smallest eigenvalue                        ... 3.038e-03
Time for diagonalization                   ...    0.009 sec
Threshold for overlap eigenvalues          ... 1.000e-08
Number of eigenvalues below threshold      ... 0
Time for construction of square roots      ...    0.008 sec
Total time needed                          ...    0.018 sec

-------------------
DFT GRID GENERATION
-------------------

General Integration Accuracy     IntAcc      ... 4.388
Radial Grid Type                 RadialGrid  ... OptM3 with GC (2021)
Angular Grid (max. ang.)         AngularGrid ... 4 (Lebedev-302)
Angular grid pruning method      GridPruning ... 4 (adaptive)
Weight generation scheme         WeightScheme... Becke
Basis function cutoff            BFCut       ... 1.0000e-11
Integration weight cutoff        WCut        ... 1.0000e-14
Angular grids for H and He will be reduced by one unit
Partially contracted basis set               ... off
Rotationally invariant grid construction     ... off

Total number of grid points                  ...    48027
Total number of batches                      ...      754
Average number of points per batch           ...       63
Average number of grid points per atom       ...     8005
Time for grid setup =    0.655 sec

--------------
SCF ITERATIONS
--------------
ITER       Energy         Delta-E        Max-DP      RMS-DP      [F,P]     Damp
               ***  Starting incremental Fock matrix formation  ***
  0  -4535.7062671523   0.000000000000 0.00780334  0.00019649  0.0336465 0.7000
  1  -4535.7090149673  -0.002747814929 0.00648655  0.00020112  0.0236027 0.7000
                               ***Turning on DIIS***
  2  -4535.7112630674  -0.002248100106 0.01940347  0.00056881  0.0164997 0.0000
                      *** Initiating the SOSCF procedure ***
                           *** Shutting down DIIS ***
                      *** Re-Reading the Fockian *** 
                      *** Removing any level shift *** 
ITER      Energy       Delta-E        Grad      Rot      Max-DP    RMS-DP
  3  -4535.71665587  -0.0053928063  0.001600  0.001600  0.006338  0.000089
               *** Restarting incremental Fock matrix formation ***
  4  -4535.71673657  -0.0000807012  0.001228  0.012741  0.007517  0.000162
  5  -4535.71670471   0.0000318653  0.002301  0.003528  0.003975  0.000068
  6  -4535.71678919  -0.0000844831  0.000481  0.003883  0.002098  0.000048
  7  -4535.71678648   0.0000027138  0.000534  0.001023  0.001480  0.000022
  8  -4535.71679397  -0.0000074910  0.000127  0.001107  0.000627  0.000014
  9  -4535.71679405  -0.0000000763  0.000126  0.000397  0.000238  0.000006
 10  -4535.71679454  -0.0000004959  0.000018  0.000175  0.000072  0.000002
 11  -4535.71679454   0.0000000006  0.000036  0.000065  0.000075  0.000001
 12  -4535.71679455  -0.0000000116  0.000010  0.000082  0.000041  0.000001
 13  -4535.71679455   0.0000000061  0.000011  0.000041  0.000020  0.000000
                  ***Gradient check signals convergence***
              ***Rediagonalizing the Fockian in SOSCF/NRSCF***

               *****************************************************
               *                     SUCCESS                       *
               *           SCF CONVERGED AFTER  14 CYCLES          *
               *****************************************************

Total Energy       :        -4535.71679457 Eh         -123423.12869 eV
  Last Energy change         ...   -2.3155e-08  Tolerance :   1.0000e-08
  Last MAX-Density change    ...    2.9407e-06  Tolerance :   1.0000e-07
             **** THE GBW FILE WAS UPDATED (AsCl5_ts_opt.gbw) ****
             **** DENSITY AsCl5_ts_opt.scfp WAS UPDATED ****
             **** ENERGY FILE WAS UPDATED (AsCl5_ts_opt.en.tmp) ****
             **** THE GBW FILE WAS UPDATED (AsCl5_ts_opt.gbw) ****
             **** DENSITY AsCl5_ts_opt.scfp WAS UPDATED ****
Total SCF time: 0 days 0 hours 0 min 14 sec 

Maximum memory used throughout the entire SCF-calculation: 103.8 MB

-------------------------   --------------------
FINAL SINGLE POINT ENERGY     -4535.716794570048
-------------------------   --------------------

------------------------------------------------------------------------------
                         ORCA SCF GRADIENT CALCULATION
------------------------------------------------------------------------------

Gradient of the Kohn-Sham DFT energy:
Kohn-Sham wavefunction type      ... RKS
Hartree-Fock exchange scaling    ...    0.000
Number of operators              ...    1
Number of atoms                  ...    6
Basis set dimensions             ...  233
Integral neglect threshold       ... 2.5e-11
Integral primitive cutoff        ... 2.5e-12
SHARK Integral package           ... ON

Nuc. rep. gradient       (SHARK) ... done (  0.0 sec)
HCore & Overlap gradient (SHARK) ... done (  0.1 sec)
RI-J gradient            (SHARK) ... done (  2.3 sec)
Exchange-correlation gradient    ... done

------------------
CARTESIAN GRADIENT
------------------

   1   As  :   -0.000000003   -0.035615966    0.000000004
   2   Cl  :    0.000000001   -0.043604930   -0.000000001
   3   Cl  :   -0.001826874    0.012999402    0.000000000
   4   Cl  :    0.001826875    0.012999405    0.000000000
   5   Cl  :    0.000000001    0.026611044   -0.036508446
   6   Cl  :    0.000000000    0.026611045    0.036508442

Difference to translation invariance:
           :   -0.0000000001   -0.0000000000    0.0000000000

Difference to rotation invariance:
           :    0.0000000013    0.0000000022   -0.0000000016

Norm of the cartesian gradient     ...    0.0871582425
RMS gradient                       ...    0.0205433948
MAX gradient                       ...    0.0436049299

-------
TIMINGS
-------

Total SCF gradient time            ...        5.672 sec

One electron gradient       ....       0.142 sec  (  2.5%)
RI-J Coulomb gradient       ....       2.331 sec  ( 41.1%)
XC gradient                 ....       3.086 sec  ( 54.4%)

Maximum memory used throughout the entire SCFGRAD-calculation: 105.8 MB
------------------------------------------------------------------------------
                         ORCA GEOMETRY RELAXATION STEP
------------------------------------------------------------------------------

Reading the OPT-File                    .... done
Getting information on internals        .... done
Copying old internal coords+grads       .... done
Making the new internal coordinates     .... (new redundants).... done
Validating the new internal coordinates .... (new redundants).... done
Calculating the B-matrix                .... done
Calculating the G,G- and P matrices     .... done
Transforming gradient to internals      .... done
Projecting the internal gradient        .... done
Number of atoms                         ....   6
Number of internal coordinates          ....  15
Current Energy                          .... -4535.716794570 Eh
Current gradient norm                   ....     0.087158242 Eh/bohr
Maximum allowed component of the step   ....  0.300
Current trust radius                    ....  0.300
Updating the Hessian (Bofill)          .... Diagonalizing the Hessian               .... done
Dimension of the hessian                ....  15
Lowest eigenvalues of the Hessian:
 -0.118022515  0.034053005  0.112608230  0.114570650  0.138756674
Hessian has   1 negative eigenvalues
Taking P-RFO step
Searching for lambda that maximizes along the lowest mode
TS mode is mode number   0 with eigenvalue  -0.11802251 and components:
   1.    0.00001002
   2.    0.02472792
   3.   -0.02474916
   4.    0.00001020
   5.    0.00001020
   6.   -0.60185301
   7.   -0.00008043
   8.   -0.00001445
   9.   -0.26181977
  10.    0.26184539
  11.   -0.00001446
  12.   -0.26181963
  13.    0.26184526
  14.   -0.00002891
  15.    0.60193347

Lambda that maximizes along the TS mode:       0.00000000
Searching for lambda that minimizes along all other modes
In cycle   1: lambdaN =  -0.03756743   step =   0.03756743
In cycle   2: lambdaN =  -0.04410052   step =   0.00653308
In cycle   3: lambdaN =  -0.04415051   step =   0.00004999
In cycle   4: lambdaN =  -0.04415051   step =   0.00000000
Lambda that minimizes along all other modes:  -0.04415051
Calculated stepsize too large (   0.4127 >    0.3000). Scaled with    0.7268.
The final length of the internal step   ....       0.3000
Converting the step to cartesian space:
 Initial RMS(Int)=    0.0774596669
Transforming coordinates:
 Iter   0:  RMS(Cart)=    0.1095527056 RMS(Int)=    0.0783605433
 Iter   1:  RMS(Cart)=    0.0069000692 RMS(Int)=    0.0073500623
 Iter   2:  RMS(Cart)=    0.0004256711 RMS(Int)=    0.0003507681
 Iter   3:  RMS(Cart)=    0.0000603513 RMS(Int)=    0.0000600285
 Iter   4:  RMS(Cart)=    0.0000041173 RMS(Int)=    0.0000038675
 Iter   5:  RMS(Cart)=    0.0000005619 RMS(Int)=    0.0000005122
 Iter   6:  RMS(Cart)=    0.0000000401 RMS(Int)=    0.0000000420
done
Storing new coordinates                 .... done

                                .--------------------.
          ----------------------|Geometry convergence|-------------------------
          Item                value                   Tolerance       Converged
          ---------------------------------------------------------------------
          Energy change      -0.0462967291            0.0000050000      NO
          RMS gradient        0.0333353903            0.0001000000      NO
          MAX gradient        0.0836161212            0.0003000000      NO
          RMS step            0.0774596669            0.0020000000      NO
          MAX step            0.1896243790            0.0040000000      NO
          ........................................................
          Max(Bonds)      0.0336      Max(Angles)   10.86
          Max(Dihed)        0.00      Max(Improp)    0.00
          ---------------------------------------------------------------------

The optimization has not yet converged - more geometry cycles are needed


    ---------------------------------------------------------------------------
                         Redundant Internal Coordinates
                            (Angstroem and degrees)

        Definition                    Value    dE/dq     Step     New-Value  comp.(TS mode)
    ----------------------------------------------------------------------------
     1. B(Cl  1,As  0)                2.1293 -0.043605  0.0221    2.1513   
     2. B(Cl  2,As  0)                2.1596 -0.006055  0.0008    2.1604   
     3. B(Cl  3,As  0)                2.1596 -0.006055  0.0008    2.1603   
     4. B(Cl  4,As  0)                2.1665 -0.031475  0.0336    2.2001   
     5. B(Cl  5,As  0)                2.1665 -0.031475  0.0336    2.2001   
     6. A(Cl  1,As  0,Cl  3)          109.47 -0.017020    5.43    114.90          0.60
     7. A(Cl  2,As  0,Cl  3)          141.06  0.034040  -10.86    130.20   
     8. A(Cl  1,As  0,Cl  4)           80.25 -0.041808    3.79     84.04   
     9. A(Cl  2,As  0,Cl  4)           93.24  0.011034    0.02     93.26          0.26
    10. A(Cl  3,As  0,Cl  4)           93.24  0.011034    0.02     93.26          0.26
    11. A(Cl  1,As  0,Cl  5)           80.25 -0.041808    3.79     84.04   
    12. A(Cl  2,As  0,Cl  5)           93.24  0.011034    0.02     93.26          0.26
    13. A(Cl  3,As  0,Cl  5)           93.24  0.011034    0.03     93.26          0.26
    14. A(Cl  4,As  0,Cl  5)          160.50 -0.083616    7.58    168.08   
    15. A(Cl  1,As  0,Cl  2)          109.47 -0.017020    5.43    114.90          0.60
    ----------------------------------------------------------------------------

         *************************************************************
         *                GEOMETRY OPTIMIZATION CYCLE   3            *
         *************************************************************
---------------------------------
CARTESIAN COORDINATES (ANGSTROEM)
---------------------------------
  As    -0.000015    0.218442   -0.000008
  Cl     0.000024    2.369791   -0.000001
  Cl     1.958337   -0.693694    0.000010
  Cl    -1.958347   -0.693723    0.000010
  Cl    -0.000000    0.452587    2.187643
  Cl    -0.000000    0.452597   -2.187654

----------------------------
CARTESIAN COORDINATES (A.U.)
----------------------------
  NO LB      ZA    FRAG     MASS         X           Y           Z
   0 As   33.0000    0    74.920   -0.000028    0.412796   -0.000014
   1 Cl   17.0000    0    35.453    0.000046    4.478255   -0.000002
[...]
  74   0.0000       0.265806         7.2330 
  75   0.0000       0.265826         7.2335 
  76   0.0000       0.272599         7.4178 
  77   0.0000       0.272615         7.4182 
  78   0.0000       0.281496         7.6599 
  79   0.0000       0.285040         7.7563 
  80   0.0000       0.285063         7.7570 
  81   0.0000       0.287300         7.8178 
  82   0.0000       0.287314         7.8182 
  83   0.0000       0.301534         8.2052 
  84   0.0000       0.301545         8.2055 
  85   0.0000       0.305123         8.3028 
  86   0.0000       0.320061         8.7093 
  87   0.0000       0.320098         8.7103 
  88   0.0000       0.321182         8.7398 
  89   0.0000       0.346519         9.4293 
  90   0.0000       0.355465         9.6727 
  91   0.0000       0.374515        10.1911 
  92   0.0000       0.374523        10.1913 
  93   0.0000       0.394158        10.7256 
  94   0.0000       0.394186        10.7263 
  95   0.0000       0.402573        10.9546 
  96   0.0000       0.414971        11.2919 
  97   0.0000       0.415022        11.2933 
  98   0.0000       0.499181        13.5834 
  99   0.0000       0.499262        13.5856 
 100   0.0000       0.516435        14.0529 
 101   0.0000       0.540749        14.7145 
 102   0.0000       0.566595        15.4178 
 103   0.0000       0.566701        15.4207 
 104   0.0000       0.630382        17.1536 
 105   0.0000       0.630417        17.1545 
 106   0.0000       0.640469        17.4281 
 107   0.0000       0.640508        17.4291 
 108   0.0000       0.650426        17.6990 
 109   0.0000       0.672795        18.3077 
 110   0.0000       0.692042        18.8314 
 111   0.0000       0.692096        18.8329 
 112   0.0000       0.909617        24.7519 
 113   0.0000       0.958972        26.0950 
 114   0.0000       0.959056        26.0973 
 115   0.0000       0.976948        26.5841 
 116   0.0000       1.003779        27.3142 
 117   0.0000       1.003824        27.3154 
 118   0.0000       1.062291        28.9064 
 119   0.0000       1.109455        30.1898 
 120   0.0000       1.109492        30.1908 
 121   0.0000       1.119080        30.4517 
 122   0.0000       1.169384        31.8206 
 123   0.0000       1.200374        32.6638 
 124   0.0000       1.200398        32.6645 
 125   0.0000       1.214505        33.0484 
 126   0.0000       1.214526        33.0489 
 127   0.0000       1.304430        35.4954 
 128   0.0000       1.483847        40.3775 
 129   0.0000       1.594978        43.4015 
 130   0.0000       1.594983        43.4017 
 131   0.0000       1.595705        43.4213 
 132   0.0000       1.595737        43.4222 
 133   0.0000       1.611740        43.8577 
 134   0.0000       1.661945        45.2238 
 135   0.0000       1.670832        45.4657 
 136   0.0000       1.670835        45.4657 
 137   0.0000       1.673786        45.5460 
 138   0.0000       1.673821        45.5470 
 139   0.0000       1.692092        46.0442 
 140   0.0000       1.724489        46.9257 
 141   0.0000       1.724527        46.9268 
 142   0.0000       1.748683        47.5841 
 143   0.0000       1.748697        47.5845 
 144   0.0000       1.750194        47.6252 
 145   0.0000       1.773877        48.2696 
 146   0.0000       1.773905        48.2704 
 147   0.0000       1.794382        48.8276 
 148   0.0000       1.806489        49.1571 
 149   0.0000       1.806535        49.1583 
 150   0.0000       1.815026        49.3894 
 151   0.0000       1.817258        49.4501 
 152   0.0000       1.820161        49.5291 
 153   0.0000       1.820242        49.5313 
 154   0.0000       1.930387        52.5285 
 155   0.0000       1.930418        52.5293 
 156   0.0000       1.942505        52.8582 
 157   0.0000       1.947454        52.9929 
 158   0.0000       1.960614        53.3510 
 159   0.0000       1.960626        53.3513 
 160   0.0000       1.964791        53.4647 
 161   0.0000       1.964808        53.4651 
 162   0.0000       1.965201        53.4759 
 163   0.0000       1.965793        53.4920 
 164   0.0000       1.965827        53.4929 
 165   0.0000       1.981235        53.9122 
 166   0.0000       1.988363        54.1061 
 167   0.0000       1.992205        54.2107 
 168   0.0000       1.992956        54.2311 
 169   0.0000       1.998155        54.3726 
 170   0.0000       2.002796        54.4989 
 171   0.0000       2.002880        54.5011 
 172   0.0000       2.003730        54.5243 
 173   0.0000       2.010722        54.7145 
 174   0.0000       2.010810        54.7169 
 175   0.0000       2.051438        55.8225 
 176   0.0000       2.051551        55.8255 
 177   0.0000       2.084552        56.7235 
 178   0.0000       2.084636        56.7258 
 179   0.0000       2.098888        57.1136 
 180   0.0000       2.098891        57.1137 
 181   0.0000       2.101116        57.1743 
 182   0.0000       2.133446        58.0540 
 183   0.0000       2.144983        58.3679 
 184   0.0000       2.145023        58.3690 
 185   0.0000       2.145820        58.3907 
 186   0.0000       2.155072        58.6425 
 187   0.0000       2.155090        58.6430 
 188   0.0000       2.192905        59.6720 
 189   0.0000       2.192938        59.6729 
 190   0.0000       2.195086        59.7313 
 191   0.0000       2.197440        59.7954 
 192   0.0000       2.197454        59.7958 
 193   0.0000       2.252770        61.3010 
 194   0.0000       2.322383        63.1953 
 195   0.0000       2.364889        64.3519 
 196   0.0000       2.364899        64.3522 
 197   0.0000       2.411544        65.6214 
 198   0.0000       2.411656        65.6245 
 199   0.0000       2.445210        66.5375 
 200   0.0000       2.517681        68.5096 
 201   0.0000       2.517756        68.5116 
 202   0.0000       2.678564        72.8874 
 203   0.0000       2.701127        73.5014 
 204   0.0000       2.987945        81.3061 
 205   0.0000       2.987993        81.3074 
 206   0.0000       3.127188        85.0951 
 207   0.0000       3.127213        85.0958 
 208   0.0000       3.516001        95.6752 
 209   0.0000       3.645782        99.2068 
 210   0.0000       3.646072        99.2147 
 211   0.0000       3.963784       107.8600 
 212   0.0000       5.780515       157.2958 
 213   0.0000      10.468346       284.8582 
 214   0.0000      10.468390       284.8594 
 215   0.0000      10.475844       285.0622 
 216   0.0000      10.503747       285.8215 
 217   0.0000      10.503758       285.8218 
 218   0.0000      10.503855       285.8244 
 219   0.0000      10.513062       286.0750 
 220   0.0000      10.513073       286.0753 
 221   0.0000      10.547779       287.0197 
 222   0.0000      10.547812       287.0206 
 223   0.0000      10.735200       292.1197 
 224   0.0000      10.772871       293.1447 
 225   0.0000      10.852966       295.3242 
 226   0.0000      10.902606       296.6750 
 227   0.0000      10.902666       296.6766 
 228   0.0000      24.338536       662.2852 
 229   0.0000      24.739258       673.1894 
 230   0.0000      24.825138       675.5263 
 231   0.0000      24.858676       676.4390 
 232   0.0000      24.859095       676.4504 

                    ********************************
                    * MULLIKEN POPULATION ANALYSIS *
                    ********************************

-----------------------
MULLIKEN ATOMIC CHARGES
-----------------------
   0 As:    0.785039
   1 Cl:   -0.130478
   2 Cl:   -0.130397
   3 Cl:   -0.130413
   4 Cl:   -0.196876
   5 Cl:   -0.196876
Sum of atomic charges:   -0.0000000

--------------------------------
MULLIKEN REDUCED ORBITAL CHARGES
--------------------------------
  0 Ass       :     7.425473  s :     7.425473
      pz      :     4.727308  p :    14.095407
      px      :     4.684037
      py      :     4.684062
      dz2     :     2.162510  d :    10.615150
      dxz     :     2.116080
      dyz     :     2.116076
      dx2y2   :     2.110237
      dxy     :     2.110246
      f0      :     0.018239  f :     0.078931
      f+1     :     0.013544
      f-1     :     0.013545
      f+2     :     0.005039
      f-2     :     0.005045
      f+3     :     0.014246
      f-3     :     0.009273
  1 Cls       :     5.956715  s :     5.956715
      pz      :     3.930901  p :    11.127609
      px      :     3.870523
      py      :     3.326185
      dz2     :     0.008167  d :     0.043238
      dxz     :     0.000570
      dyz     :     0.009485
      dx2y2   :     0.017970
      dxy     :     0.007047
      f0      :     0.000251  f :     0.002916
      f+1     :     0.000055
      f-1     :     0.000741
      f+2     :     0.000393
      f-2     :     0.000028
      f+3     :     0.000558
      f-3     :     0.000890
  2 Cls       :     5.956706  s :     5.956706
      pz      :     3.930849  p :    11.127533
      px      :     3.462253
      py      :     3.734431
      dz2     :     0.008164  d :     0.043242
      dxz     :     0.007255
      dyz     :     0.002799
      dx2y2   :     0.009780
      dxy     :     0.015244
      f0      :     0.000251  f :     0.002916
      f+1     :     0.000570
      f-1     :     0.000227
      f+2     :     0.000119
      f-2     :     0.000302
      f+3     :     0.000558
      f-3     :     0.000890
  3 Cls       :     5.956711  s :     5.956711
      pz      :     3.930874  p :    11.127544
      px      :     3.462353
      py      :     3.734317
      dz2     :     0.008165  d :     0.043242
      dxz     :     0.007254
      dyz     :     0.002801
      dx2y2   :     0.009775
      dxy     :     0.015246
      f0      :     0.000251  f :     0.002916
      f+1     :     0.000570
      f-1     :     0.000227
      f+2     :     0.000119
      f-2     :     0.000302
      f+3     :     0.000558
      f-3     :     0.000890
  4 Cls       :     5.959261  s :     5.959261
      pz      :     3.354925  p :    11.196219
      px      :     3.920639
      py      :     3.920656
      dz2     :     0.021117  d :     0.038867
      dxz     :     0.007521
      dyz     :     0.007523
      dx2y2   :     0.001353
      dxy     :     0.001354
      f0      :     0.001338  f :     0.002528
      f+1     :     0.000504
      f-1     :     0.000504
      f+2     :     0.000079
      f-2     :     0.000079
      f+3     :     0.000009
      f-3     :     0.000016
  5 Cls       :     5.959261  s :     5.959261
      pz      :     3.354925  p :    11.196219
      px      :     3.920639
      py      :     3.920656
      dz2     :     0.021117  d :     0.038867
      dxz     :     0.007521
      dyz     :     0.007523
      dx2y2   :     0.001353
      dxy     :     0.001354
      f0      :     0.001338  f :     0.002528
      f+1     :     0.000504
      f-1     :     0.000504
      f+2     :     0.000079
      f-2     :     0.000079
      f+3     :     0.000009
      f-3     :     0.000016


                     *******************************
                     * LOEWDIN POPULATION ANALYSIS *
                     *******************************

----------------------
LOEWDIN ATOMIC CHARGES
----------------------
   0 As:   -0.373090
   1 Cl:    0.115453
   2 Cl:    0.115633
   3 Cl:    0.115577
   4 Cl:    0.013214
   5 Cl:    0.013214

-------------------------------
LOEWDIN REDUCED ORBITAL CHARGES
-------------------------------
  0 Ass       :     7.117330  s :     7.117330
      pz      :     4.837952  p :    14.450252
      px      :     4.806143
      py      :     4.806157
      dz2     :     2.551917  d :    11.584148
      dxz     :     2.207753
      dyz     :     2.207735
      dx2y2   :     2.308348
      dxy     :     2.308396
      f0      :     0.056077  f :     0.221359
      f+1     :     0.036385
      f-1     :     0.036386
      f+2     :     0.011260
      f-2     :     0.011272
      f+3     :     0.032502
      f-3     :     0.037477
  1 Cls       :     5.733894  s :     5.733894
      pz      :     3.893486  p :    11.078369
      px      :     3.824856
      py      :     3.360026
      dz2     :     0.013189  d :     0.066874
      dxz     :     0.000556
      dyz     :     0.012259
      dx2y2   :     0.033194
      dxy     :     0.007676
      f0      :     0.000319  f :     0.005410
      f+1     :     0.000061
      f-1     :     0.001557
      f+2     :     0.000572
      f-2     :     0.000024
      f+3     :     0.000643
      f-3     :     0.002235
  2 Cls       :     5.733815  s :     5.733815
      pz      :     3.893403  p :    11.078259
      px      :     3.476233
      py      :     3.708623
      dz2     :     0.013187  d :     0.066882
      dxz     :     0.009331
      dyz     :     0.003482
      dx2y2   :     0.014059
      dxy     :     0.026823
      f0      :     0.000319  f :     0.005412
      f+1     :     0.001183
      f-1     :     0.000435
      f+2     :     0.000161
      f-2     :     0.000435
      f+3     :     0.000643
      f-3     :     0.002236
  3 Cls       :     5.733847  s :     5.733847
      pz      :     3.893438  p :    11.078284
      px      :     3.476315
      py      :     3.708530
      dz2     :     0.013188  d :     0.066882
      dxz     :     0.009330
      dyz     :     0.003485
      dx2y2   :     0.014049
      dxy     :     0.026829
      f0      :     0.000319  f :     0.005411
      f+1     :     0.001182
      f-1     :     0.000435
      f+2     :     0.000161
      f-2     :     0.000435
      f+3     :     0.000643
      f-3     :     0.002235
  4 Cls       :     5.763466  s :     5.763466
      pz      :     3.380618  p :    11.160165
      px      :     3.889761
      py      :     3.889786
      dz2     :     0.038020  d :     0.058686
      dxz     :     0.008648
      dyz     :     0.008652
      dx2y2   :     0.001683
      dxy     :     0.001683
      f0      :     0.003003  f :     0.004469
      f+1     :     0.000623
      f-1     :     0.000624
      f+2     :     0.000087
      f-2     :     0.000087
      f+3     :     0.000013
      f-3     :     0.000032
  5 Cls       :     5.763466  s :     5.763466
      pz      :     3.380618  p :    11.160165
      px      :     3.889761
      py      :     3.889786
      dz2     :     0.038020  d :     0.058686
      dxz     :     0.008648
      dyz     :     0.008652
      dx2y2   :     0.001683
      dxy     :     0.001683
      f0      :     0.003003  f :     0.004469
      f+1     :     0.000623
      f-1     :     0.000624
      f+2     :     0.000087
      f-2     :     0.000087
      f+3     :     0.000013
      f-3     :     0.000032


                      *****************************
                      * MAYER POPULATION ANALYSIS *
                      *****************************

  NA   - Mulliken gross atomic population
  ZA   - Total nuclear charge
  QA   - Mulliken gross atomic charge
  VA   - Mayer's total valence
  BVA  - Mayer's bonded valence
  FA   - Mayer's free valence

  ATOM       NA         ZA         QA         VA         BVA        FA
  0 As    32.2150    33.0000     0.7850     4.9279     4.9279     0.0000
  1 Cl    17.1305    17.0000    -0.1305     1.2469     1.2469    -0.0000
  2 Cl    17.1304    17.0000    -0.1304     1.2470     1.2470    -0.0000
  3 Cl    17.1304    17.0000    -0.1304     1.2470     1.2470     0.0000
  4 Cl    17.1969    17.0000    -0.1969     1.1605     1.1605     0.0000
  5 Cl    17.1969    17.0000    -0.1969     1.1605     1.1605    -0.0000

  Mayer bond orders larger than 0.100000
B(  0-As,  1-Cl) :   1.0185 B(  0-As,  2-Cl) :   1.0186 B(  0-As,  3-Cl) :   1.0186 
B(  0-As,  4-Cl) :   0.9361 B(  0-As,  5-Cl) :   0.9361 

-------
TIMINGS
-------

Total SCF time: 0 days 0 hours 0 min 7 sec 

Total time                  ....       7.642 sec
Sum of individual times     ....       7.143 sec  ( 93.5%)

Fock matrix formation       ....       6.110 sec  ( 80.0%)
  Split-RI-J                ....       1.993 sec  ( 32.6% of F)
  XC integration            ....       4.105 sec  ( 67.2% of F)
    Basis function eval.    ....       1.429 sec  ( 34.8% of XC)
    Density eval.           ....       1.286 sec  ( 31.3% of XC)
    XC-Functional eval.     ....       0.202 sec  (  4.9% of XC)
    XC-Potential eval.      ....       0.906 sec  ( 22.1% of XC)
Diagonalization             ....       0.011 sec  (  0.1%)
Density matrix formation    ....       0.009 sec  (  0.1%)
Population analysis         ....       0.034 sec  (  0.4%)
Initial guess               ....       0.029 sec  (  0.4%)
Orbital Transformation      ....       0.000 sec  (  0.0%)
Orbital Orthonormalization  ....       0.017 sec  (  0.2%)
DIIS solution               ....       0.004 sec  (  0.1%)
SOSCF solution              ....       0.066 sec  (  0.9%)
Grid generation             ....       0.880 sec  ( 11.5%)

Maximum memory used throughout the entire SCF-calculation: 102.2 MB

-------------------------   --------------------
FINAL SINGLE POINT ENERGY     -4535.752260129972
-------------------------   --------------------

                                *** OPTIMIZATION RUN DONE ***

                            ***************************************
                            *     ORCA property calculations      *
                            ***************************************

                                    ---------------------
                                    Active property flags
                                    ---------------------
   (+) Dipole Moment


------------------------------------------------------------------------------
                       ORCA ELECTRIC PROPERTIES CALCULATION
------------------------------------------------------------------------------

Dipole Moment Calculation                       ... on
Quadrupole Moment Calculation                   ... off
Polarizability Calculation                      ... off
GBWName                                         ... AsCl5_ts_opt.gbw
Electron density                                ... AsCl5_ts_opt.scfp
The origin for moment calculation is the CENTER OF MASS  = (-0.000006,  0.663274  0.000000)

-------------
DIPOLE MOMENT
-------------
                                X             Y             Z
Electronic contribution:      0.00003      -0.00090       0.00000
Nuclear contribution   :      0.00010       0.00032      -0.00000
                        -----------------------------------------
Total Dipole Moment    :      0.00014      -0.00058       0.00000
                        -----------------------------------------
Magnitude (a.u.)       :      0.00059
Magnitude (Debye)      :      0.00151



--------------------
Rotational spectrum 
--------------------
 
Rotational constants in cm-1:     0.033404     0.027650     0.027644 
Rotational constants in MHz :  1001.421834   828.930949   828.756959 

 Dipole components along the rotational axes: 
x,y,z [a.u.] :     0.000000    -0.000475    -0.000355 
x,y,z [Debye]:     0.000001    -0.001207    -0.000903 

 

Timings for individual modules:

Sum of individual times         ...      193.069 sec (=   3.218 min)
GTO integral calculation        ...        4.622 sec (=   0.077 min)   2.4 %
SCF iterations                  ...      130.389 sec (=   2.173 min)  67.5 %
SCF Gradient evaluation         ...       57.573 sec (=   0.960 min)  29.8 %
Geometry relaxation             ...        0.485 sec (=   0.008 min)   0.3 %
                             ****ORCA TERMINATED NORMALLY****
TOTAL RUN TIME: 0 days 0 hours 3 minutes 13 seconds 947 msec
