
                                 *****************
                                 * O   R   C   A *
                                 *****************

                                            #,                                       
                                            ###                                      
                                            ####                                     
                                            #####                                    
                                            ######                                   
                                           ########,                                 
                                     ,,################,,,,,                         
                               ,,#################################,,                 
                          ,,##########################################,,             
                       ,#########################################, ''#####,          
                    ,#############################################,,   '####,        
                  ,##################################################,,,,####,       
                ,###########''''           ''''###############################       
              ,#####''   ,,,,##########,,,,          '''####'''          '####       
            ,##' ,,,,###########################,,,                        '##       
           ' ,,###''''                  '''############,,,                           
         ,,##''                                '''############,,,,        ,,,,,,###''
      ,#''                                            '''#######################'''  
     '                                                          ''''####''''         
             ,#######,   #######,   ,#######,      ##                                
            ,#'     '#,  ##    ##  ,#'     '#,    #''#        ######   ,####,        
            ##       ##  ##   ,#'  ##            #'  '#       #        #'  '#        
            ##       ##  #######   ##           ,######,      #####,   #    #        
            '#,     ,#'  ##    ##  '#,     ,#' ,#      #,         ##   #,  ,#        
             '#######'   ##     ##  '#######'  #'      '#     #####' # '####'        



                  #######################################################
                  #                        -***-                        #
                  #          Department of theory and spectroscopy      #
                  #    Directorship and core code : Frank Neese         #
                  #        Max Planck Institute fuer Kohlenforschung    #
                  #                Kaiser Wilhelm Platz 1               #
                  #                 D-45470 Muelheim/Ruhr               #
                  #                      Germany                        #
                  #                                                     #
                  #                  All rights reserved                #
                  #                        -***-                        #
                  #######################################################



                         Program Version 5.0.4 -  RELEASE  -

 With contributions from (in alphabetic order):
   Daniel Aravena         : Magnetic Suceptibility
   Michael Atanasov       : Ab Initio Ligand Field Theory (pilot matlab implementation)
   Alexander A. Auer      : GIAO ZORA, VPT2 properties, NMR spectrum
   Ute Becker             : Parallelization
   Giovanni Bistoni       : ED, misc. LED, open-shell LED, HFLD
   Martin Brehm           : Molecular dynamics
   Dmytro Bykov           : SCF Hessian
   Vijay G. Chilkuri      : MRCI spin determinant printing, contributions to CSF-ICE
   Dipayan Datta          : RHF DLPNO-CCSD density
   Achintya Kumar Dutta   : EOM-CC, STEOM-CC
   Dmitry Ganyushin       : Spin-Orbit,Spin-Spin,Magnetic field MRCI
   Miquel Garcia          : C-PCM and meta-GGA Hessian, CC/C-PCM, Gaussian charge scheme
   Yang Guo               : DLPNO-NEVPT2, F12-NEVPT2, CIM, IAO-localization
   Andreas Hansen         : Spin unrestricted coupled pair/coupled cluster methods
   Benjamin Helmich-Paris : MC-RPA, TRAH-SCF, COSX integrals
   Lee Huntington         : MR-EOM, pCC
   Robert Izsak           : Overlap fitted RIJCOSX, COSX-SCS-MP3, EOM
   Marcus Kettner         : VPT2
   Christian Kollmar      : KDIIS, OOCD, Brueckner-CCSD(T), CCSD density, CASPT2, CASPT2-K
   Simone Kossmann        : Meta GGA functionals, TD-DFT gradient, OOMP2, MP2 Hessian
   Martin Krupicka        : Initial AUTO-CI
   Lucas Lang             : DCDCAS
   Marvin Lechner         : AUTO-CI (C++ implementation), FIC-MRCC
   Dagmar Lenk            : GEPOL surface, SMD
   Dimitrios Liakos       : Extrapolation schemes; Compound Job, initial MDCI parallelization
   Dimitrios Manganas     : Further ROCIS development; embedding schemes
   Dimitrios Pantazis     : SARC Basis sets
   Anastasios Papadopoulos: AUTO-CI, single reference methods and gradients
   Taras Petrenko         : DFT Hessian,TD-DFT gradient, ASA, ECA, R-Raman, ABS, FL, XAS/XES, NRVS
   Peter Pinski           : DLPNO-MP2, DLPNO-MP2 Gradient
   Christoph Reimann      : Effective Core Potentials
   Marius Retegan         : Local ZFS, SOC
   Christoph Riplinger    : Optimizer, TS searches, QM/MM, DLPNO-CCSD(T), (RO)-DLPNO pert. Triples
   Tobias Risthaus        : Range-separated hybrids, TD-DFT gradient, RPA, STAB
   Michael Roemelt        : Original ROCIS implementation
   Masaaki Saitow         : Open-shell DLPNO-CCSD energy and density
   Barbara Sandhoefer     : DKH picture change effects
   Avijit Sen             : IP-ROCIS
   Kantharuban Sivalingam : CASSCF convergence, NEVPT2, FIC-MRCI
   Bernardo de Souza      : ESD, SOC TD-DFT
   Georgi Stoychev        : AutoAux, RI-MP2 NMR, DLPNO-MP2 response
   Willem Van den Heuvel  : Paramagnetic NMR
   Boris Wezisla          : Elementary symmetry handling
   Frank Wennmohs         : Technical directorship


 We gratefully acknowledge several colleagues who have allowed us to
 interface, adapt or use parts of their codes:
   Stefan Grimme, W. Hujo, H. Kruse, P. Pracht,  : VdW corrections, initial TS optimization,
                  C. Bannwarth, S. Ehlert          DFT functionals, gCP, sTDA/sTD-DF
   Ed Valeev, F. Pavosevic, A. Kumar             : LibInt (2-el integral package), F12 methods
   Garnet Chan, S. Sharma, J. Yang, R. Olivares  : DMRG
   Ulf Ekstrom                                   : XCFun DFT Library
   Mihaly Kallay                                 : mrcc  (arbitrary order and MRCC methods)
   Jiri Pittner, Ondrej Demel                    : Mk-CCSD
   Frank Weinhold                                : gennbo (NPA and NBO analysis)
   Christopher J. Cramer and Donald G. Truhlar   : smd solvation model
   Lars Goerigk                                  : TD-DFT with DH, B97 family of functionals
   V. Asgeirsson, H. Jonsson                     : NEB implementation
   FAccTs GmbH                                   : IRC, NEB, NEB-TS, DLPNO-Multilevel, CI-OPT
                                                   MM, QMMM, 2- and 3-layer-ONIOM, Crystal-QMMM,
                                                   LR-CPCM, SF, NACMEs, symmetry and pop. for TD-DFT,
                                                   nearIR, NL-DFT gradient (VV10), updates on ESD,
                                                   ML-optimized integration grids
   S Lehtola, MJT Oliveira, MAL Marques          : LibXC Library
   Liviu Ungur et al                             : ANISO software


 Your calculation uses the libint2 library for the computation of 2-el integrals
 For citations please refer to: http://libint.valeyev.net

 Your ORCA version has been built with support for libXC version: 5.1.0
 For citations please refer to: https://tddft.org/programs/libxc/

 This ORCA versions uses:
   CBLAS   interface :  Fast vector & matrix operations
   LAPACKE interface :  Fast linear algebra routines
   Shared memory     :  Shared parallel matrices


================================================================================

----- Orbital basis set information -----
Your calculation utilizes the basis: def2-TZVP
   F. Weigend and R. Ahlrichs, Phys. Chem. Chem. Phys. 7, 3297 (2005).

----- AuxJ basis set information -----
Your calculation utilizes the auxiliary basis: def2/J
   F. Weigend, Phys. Chem. Chem. Phys. 8, 1057 (2006).

================================================================================
                                        WARNINGS
                       Please study these warnings very carefully!
================================================================================


WARNING: Geometry Optimization
  ===> : Switching off AutoStart
         For restart on a previous wavefunction, please use MOREAD

INFO   : the flag for use of the SHARK integral package has been found!

================================================================================
                                       INPUT FILE
================================================================================
NAME = AsF5_ts_opt.inp
|  1> ! PBE def2-TZVP OptTS
|  2> 
|  3> # %geom
|  4> #   Calc_Hess true
|  5> # end
|  6> 
|  7> %geom
|  8>   inhess read
|  9>   inhessname "AsF5_ts_guess.hess"
| 10> end
| 11> 
| 12> * xyz 0 1
| 13> As  0.0000  0.0000  0.0000  # Arsenic (As)
| 14> F  0.0000  1.7190  0.0000  # Equatorial Fluorine (F1)
| 15> F  1.6357 -0.4384  0.0000  # Equatorial Fluorine (F2)
| 16> F -1.6357 -0.4384  0.0000  # Equatorial Fluorine (F3)
| 17> F  0.0000  0.4384  1.6357  # Axial Fluorine (F4)
| 18> F  0.0000  0.4384 -1.6357  # Axial Fluorine (F5)
| 19> **                         ****END OF INPUT****
================================================================================

                       *****************************
                       * Geometry Optimization Run *
                       *****************************

Geometry optimization settings:
Update method            Update   .... Bofill
Choice of coordinates    CoordSys .... Z-matrix Internals
Initial Hessian          InHess   .... Read

Convergence Tolerances:
Energy Change            TolE     ....  5.0000e-06 Eh
Max. Gradient            TolMAXG  ....  3.0000e-04 Eh/bohr
RMS Gradient             TolRMSG  ....  1.0000e-04 Eh/bohr
Max. Displacement        TolMAXD  ....  4.0000e-03 bohr
RMS Displacement         TolRMSD  ....  2.0000e-03 bohr
Strict Convergence                ....  False
------------------------------------------------------------------------------
                        ORCA OPTIMIZATION COORDINATE SETUP
------------------------------------------------------------------------------

The optimization will be done in new redundant internal coordinates
Making redundant internal coordinates   ...  (new redundants) done
Following TS mode number                ...     0
Evaluating the initial hessian          ... (Reading Exact Hessian)...  
InHessName: AsF5_ts_guess.hess	The file <AsF5_ts_guess.hess> is opened as a .hess file
done
done
Diagonalizing the Hessian               .... done
Dimension of the hessian                .... 15
Lowest eigenvalues of the non projected Hessian:
 -0.066033273 -0.000134423 -0.000000014  0.000185851  0.032821572
done
Evaluating the coordinates              ...  done
Calculating the B-matrix                .... done
Calculating the G-matrix                .... done
Diagonalizing the G-matrix              .... done
The first mode is                       ....    3
The number of degrees of freedom        ....   12

    -----------------------------------------------------------------
                    Redundant Internal Coordinates


    -----------------------------------------------------------------
         Definition                    Initial Value    d2E/dq (diagonal element)
    -----------------------------------------------------------------
      1. B(F   1,As  0)                  1.7190         0.324394   
      2. B(F   2,As  0)                  1.6934         0.328562   
      3. B(F   3,As  0)                  1.6934         0.328562   
      4. B(F   4,As  0)                  1.6934         0.349015   
      5. B(F   5,As  0)                  1.6934         0.349015   
      6. A(F   1,As  0,F   3)          105.0038         0.014383   
      7. A(F   2,As  0,F   3)          149.9925         0.031080   
      8. A(F   1,As  0,F   4)           74.9962         0.459674   
      9. A(F   2,As  0,F   4)           93.8429         0.155231   
     10. A(F   3,As  0,F   4)           93.8429         0.155231   
     11. A(F   1,As  0,F   5)           74.9962         0.459674   
     12. A(F   2,As  0,F   5)           93.8429         0.155231   
     13. A(F   3,As  0,F   5)           93.8429         0.155231   
     14. A(F   4,As  0,F   5)          149.9925         0.180648   
     15. A(F   1,As  0,F   2)          105.0038         0.014383   
    -----------------------------------------------------------------

Number of atoms                         .... 6
Number of degrees of freedom            .... 15

         *************************************************************
         *                GEOMETRY OPTIMIZATION CYCLE   1            *
         *************************************************************
---------------------------------
CARTESIAN COORDINATES (ANGSTROEM)
---------------------------------
  As     0.000000    0.000000    0.000000
  F      0.000000    1.719000    0.000000
  F      1.635700   -0.438400    0.000000
  F     -1.635700   -0.438400    0.000000
  F      0.000000    0.438400    1.635700
  F      0.000000    0.438400   -1.635700

----------------------------
CARTESIAN COORDINATES (A.U.)
----------------------------
  NO LB      ZA    FRAG     MASS         X           Y           Z
   0 As   33.0000    0    74.920    0.000000    0.000000    0.000000
   1 F     9.0000    0    18.998    0.000000    3.248439    0.000000
   2 F     9.0000    0    18.998    3.091025   -0.828456    0.000000
   3 F     9.0000    0    18.998   -3.091025   -0.828456    0.000000
   4 F     9.0000    0    18.998    0.000000    0.828456    3.091025
   5 F     9.0000    0    18.998    0.000000    0.828456   -3.091025

--------------------------------
INTERNAL COORDINATES (ANGSTROEM)
--------------------------------
 As     0   0   0     0.000000000000     0.00000000     0.00000000
 F      1   0   0     1.719000000000     0.00000000     0.00000000
 F      1   2   0     1.693431147109   105.00377488     0.00000000
 F      1   2   3     1.693431147109   105.00377488   180.00000000
 F      1   2   3     1.693431147109    74.99622512    90.00000000
 F      1   2   3     1.693431147109    74.99622512   270.00000000

---------------------------
INTERNAL COORDINATES (A.U.)
---------------------------
 As     0   0   0     0.000000000000     0.00000000     0.00000000
 F      1   0   0     3.248439224211     0.00000000     0.00000000
 F      1   2   0     3.200121094689   105.00377488     0.00000000
 F      1   2   3     3.200121094689   105.00377488   180.00000000
 F      1   2   3     3.200121094689    74.99622512    90.00000000
 F      1   2   3     3.200121094689    74.99622512   270.00000000

---------------------
BASIS SET INFORMATION
---------------------
There are 2 groups of distinct atoms

 Group   1 Type As  : 17s13p8d1f contracted to 6s5p4d1f pattern {842111/64111/5111/1}
 Group   2 Type F   : 11s6p2d1f contracted to 5s3p2d1f pattern {62111/411/11/1}

Atom   0As   basis set group =>   1
Atom   1F    basis set group =>   2
Atom   2F    basis set group =>   2
Atom   3F    basis set group =>   2
Atom   4F    basis set group =>   2
Atom   5F    basis set group =>   2
---------------------------------
AUXILIARY/J BASIS SET INFORMATION
---------------------------------
There are 2 groups of distinct atoms

 Group   1 Type As  : 19s5p5d3f1g contracted to 8s4p3d2f1g pattern {121111111/2111/311/21/1}
 Group   2 Type F   : 12s5p4d2f1g contracted to 6s4p3d1f1g pattern {711111/2111/211/2/1}

Atom   0As   basis set group =>   1
Atom   1F    basis set group =>   2
Atom   2F    basis set group =>   2
Atom   3F    basis set group =>   2
Atom   4F    basis set group =>   2
Atom   5F    basis set group =>   2
------------------------------------------------------------------------------
                           ORCA GTO INTEGRAL CALCULATION
                           -- RI-GTO INTEGRALS CHOSEN --
------------------------------------------------------------------------------
------------------------------------------------------------------------------
                   ___                                                        
                  /   \      - P O W E R E D   B Y -                         
                 /     \                                                     
                 |  |  |   _    _      __       _____    __    __             
                 |  |  |  | |  | |    /  \     |  _  \  |  |  /  |          
                  \  \/   | |  | |   /    \    | | | |  |  | /  /          
                 / \  \   | |__| |  /  /\  \   | |_| |  |  |/  /          
                |  |  |   |  __  | /  /__\  \  |    /   |      \           
                |  |  |   | |  | | |   __   |  |    \   |  |\   \          
                \     /   | |  | | |  |  |  |  | |\  \  |  | \   \       
                 \___/    |_|  |_| |__|  |__|  |_| \__\ |__|  \__/        
                                                                              
                      - O R C A' S   B I G   F R I E N D -                    
                                      &                                       
                       - I N T E G R A L  F E E D E R -                       
                                                                              
 v1 FN, 2020, v2 2021                                                         
------------------------------------------------------------------------------


Reading SHARK input file AsF5_ts_opt.SHARKINP.tmp ... ok
----------------------
SHARK INTEGRAL PACKAGE
----------------------

Number of atoms                             ...      6
Number of basis functions                   ...    203
Number of shells                            ...     71
Maximum angular momentum                    ...      3
Integral batch strategy                     ... SHARK/LIBINT Hybrid
RI-J (if used) integral strategy            ... SPLIT-RIJ (Revised 2003 algorithm where possible)
Printlevel                                  ...      1
Contraction scheme used                     ... SEGMENTED contraction
Coulomb Range Separation                    ... NOT USED
Exchange Range Separation                   ... NOT USED
Finite Nucleus Model                        ... NOT USED
Auxiliary Coulomb fitting basis             ... AVAILABLE
   # of basis functions in Aux-J            ...    303
   # of shells in Aux-J                     ...     93
   Maximum angular momentum in Aux-J        ...      4
Auxiliary J/K fitting basis                 ... NOT available
Auxiliary Correlation fitting basis         ... NOT available
Auxiliary 'external' fitting basis          ... NOT available
Integral threshold                          ...     2.500000e-11
Primitive cut-off                           ...     2.500000e-12
Primitive pair pre-selection threshold      ...     2.500000e-12

Calculating pre-screening integrals         ... done (  0.1 sec) Dimension = 71
Organizing shell pair data                  ... done (  0.0 sec)
Shell pair information
Total number of shell pairs                 ...      2556
Shell pairs after pre-screening             ...      2295
Total number of primitive shell pairs       ...      9906
Primitive shell pairs kept                  ...      6403
          la=0 lb=0:    397 shell pairs
          la=1 lb=0:    570 shell pairs
          la=1 lb=1:    208 shell pairs
          la=2 lb=0:    381 shell pairs
          la=2 lb=1:    276 shell pairs
          la=2 lb=2:     97 shell pairs
          la=3 lb=0:    150 shell pairs
          la=3 lb=1:    116 shell pairs
          la=3 lb=2:     80 shell pairs
          la=3 lb=3:     20 shell pairs

Calculating one electron integrals          ... done (  0.0 sec)
Calculating RI/J V-Matrix + Cholesky decomp.... done (  0.0 sec)
Calculating Nuclear repulsion               ... done (  0.0 sec) ENN=    631.107537379048 Eh

SHARK setup successfully completed in   0.3 seconds

Maximum memory used throughout the entire GTOINT-calculation: 64.4 MB
-------------------------------------------------------------------------------
                                 ORCA SCF
-------------------------------------------------------------------------------

------------
SCF SETTINGS
------------
Hamiltonian:
 Density Functional     Method          .... DFT(GTOs)
 Exchange Functional    Exchange        .... PBE
   PBE kappa parameter   XKappa         ....  0.804000
   PBE mue parameter    XMuePBE         ....  0.219520
 Correlation Functional Correlation     .... PBE
   PBE beta parameter  CBetaPBE         ....  0.066725
 LDA part of GGA corr.  LDAOpt          .... PW91-LDA
 Gradients option       PostSCFGGA      .... off
   Density functional embedding theory  .... OFF
   NL short-range parameter             ....  6.400000
 RI-approximation to the Coulomb term is turned on
   Number of AuxJ basis functions       .... 303


General Settings:
 Integral files         IntName         .... AsF5_ts_opt
 Hartree-Fock type      HFTyp           .... RHF
 Total Charge           Charge          ....    0
 Multiplicity           Mult            ....    1
 Number of Electrons    NEL             ....   78
 Basis Dimension        Dim             ....  203
 Nuclear Repulsion      ENuc            ....    631.1075373790 Eh

Convergence Acceleration:
 DIIS                   CNVDIIS         .... on
   Start iteration      DIISMaxIt       ....    12
   Startup error        DIISStart       ....  0.200000
   # of expansion vecs  DIISMaxEq       ....     5
   Bias factor          DIISBfac        ....   1.050
   Max. coefficient     DIISMaxC        ....  10.000
 Trust-Rad. Augm. Hess. CNVTRAH         .... auto
   Auto Start mean grad. ratio tolernc. ....  1.125000
   Auto Start start iteration           ....    20
   Auto Start num. interpolation iter.  ....    10
   Max. Number of Micro iterations      ....    16
   Max. Number of Macro iterations      .... Maxiter - #DIIS iter
   Number of Davidson start vectors     ....     2
   Converg. threshold I  (grad. norm)   ....   1.000e-05
   Converg. threshold II (energy diff.) ....   1.000e-08
   Grad. Scal. Fac. for Micro threshold ....   0.100
   Minimum threshold for Micro iter.    ....   0.010
   NR start threshold (gradient norm)   ....   0.001
   Initial trust radius                 ....   0.400
   Minimum AH scaling param. (alpha)    ....   1.000
   Maximum AH scaling param. (alpha)    .... 1000.000
   Orbital update algorithm             .... Taylor
   White noise on init. David. guess    .... on
   Maximum white noise                  ....   0.010
   Quad. conv. algorithm                .... NR
 SOSCF                  CNVSOSCF        .... on
   Start iteration      SOSCFMaxIt      ....   150
   Startup grad/error   SOSCFStart      ....  0.003300
 Level Shifting         CNVShift        .... on
   Level shift para.    LevelShift      ....    0.2500
   Turn off err/grad.   ShiftErr        ....    0.0010
 Zerner damping         CNVZerner       .... off
 Static damping         CNVDamp         .... on
   Fraction old density DampFac         ....    0.7000
   Max. Damping (<1)    DampMax         ....    0.9800
   Min. Damping (>=0)   DampMin         ....    0.0000
   Turn off err/grad.   DampErr         ....    0.1000
 Fernandez-Rico         CNVRico         .... off

SCF Procedure:
 Maximum # iterations   MaxIter         ....   125
 SCF integral mode      SCFMode         .... Direct
   Integral package                     .... SHARK and LIBINT hybrid scheme
 Reset frequency        DirectResetFreq ....    20
 Integral Threshold     Thresh          ....  2.500e-11 Eh
 Primitive CutOff       TCut            ....  2.500e-12 Eh

Convergence Tolerance:
 Convergence Check Mode ConvCheckMode   .... Total+1el-Energy
 Convergence forced     ConvForced      .... 0
 Energy Change          TolE            ....  1.000e-08 Eh
 1-El. energy change                    ....  1.000e-05 Eh
 Orbital Gradient       TolG            ....  1.000e-05
 Orbital Rotation angle TolX            ....  1.000e-05
 DIIS Error             TolErr          ....  5.000e-07


Diagonalization of the overlap matrix:
Smallest eigenvalue                        ... 2.499e-03
Time for diagonalization                   ...    0.005 sec
Threshold for overlap eigenvalues          ... 1.000e-08
Number of eigenvalues below threshold      ... 0
Time for construction of square roots      ...    0.004 sec
Total time needed                          ...    0.009 sec

Time for model grid setup =    0.124 sec

------------------------------
INITIAL GUESS: MODEL POTENTIAL
------------------------------
Loading Hartree-Fock densities                     ... done
Calculating cut-offs                               ... done
Initializing the effective Hamiltonian             ... done
Setting up the integral package (SHARK)            ... done
Starting the Coulomb interaction                   ... done (   0.1 sec)
Reading the grid                                   ... done
Mapping shells                                     ... done
Starting the XC term evaluation                    ... done (   0.2 sec)
  promolecular density results
     # of electrons  =     78.000055621
     EX              =   -131.272328915
     EC              =     -3.201120065
     EX+EC           =   -134.473448980
Transforming the Hamiltonian                       ... done (   0.0 sec)
Diagonalizing the Hamiltonian                      ... done (   0.0 sec)
Back transforming the eigenvectors                 ... done (   0.0 sec)
Now organizing SCF variables                       ... done
                      ------------------
                      INITIAL GUESS DONE (   0.5 sec)
                      ------------------
-------------------
DFT GRID GENERATION
-------------------

General Integration Accuracy     IntAcc      ... 4.388
Radial Grid Type                 RadialGrid  ... OptM3 with GC (2021)
Angular Grid (max. ang.)         AngularGrid ... 4 (Lebedev-302)
Angular grid pruning method      GridPruning ... 4 (adaptive)
Weight generation scheme         WeightScheme... Becke
Basis function cutoff            BFCut       ... 1.0000e-11
Integration weight cutoff        WCut        ... 1.0000e-14
Angular grids for H and He will be reduced by one unit
Partially contracted basis set               ... off
Rotationally invariant grid construction     ... off

Total number of grid points                  ...    41915
Total number of batches                      ...      656
Average number of points per batch           ...       63
Average number of grid points per atom       ...     6986
Time for grid setup =    0.439 sec

--------------
SCF ITERATIONS
--------------
ITER       Energy         Delta-E        Max-DP      RMS-DP      [F,P]     Damp
               ***  Starting incremental Fock matrix formation  ***
  0  -2734.2787017707   0.000000000000 0.24101788  0.00198889  0.2450950 0.7000
  1  -2734.4068928213  -0.128191050533 0.12731682  0.00105099  0.0694358 0.7000
                               ***Turning on DIIS***
  2  -2734.4384756961  -0.031582874864 0.08573456  0.00091737  0.0147431 0.0000
  3  -2734.5179753298  -0.079499633618 0.06717773  0.00058272  0.0342075 0.0000
  4  -2734.5245707622  -0.006595432459 0.01006644  0.00016263  0.0135788 0.0000
  5  -2734.5251588695  -0.000588107264 0.00194187  0.00005352  0.0035029 0.0000
                      *** Initiating the SOSCF procedure ***
                           *** Shutting down DIIS ***
                      *** Re-Reading the Fockian *** 
                      *** Removing any level shift *** 
ITER      Energy       Delta-E        Grad      Rot      Max-DP    RMS-DP
  6  -2734.52519449  -0.0000356189  0.000606  0.000606  0.001772  0.000024
               *** Restarting incremental Fock matrix formation ***
  7  -2734.52520991  -0.0000154206  0.000290  0.000661  0.002265  0.000021
  8  -2734.52520715   0.0000027605  0.000469  0.000356  0.001234  0.000013
  9  -2734.52521188  -0.0000047356  0.000050  0.000240  0.000109  0.000003
 10  -2734.52521177   0.0000001165  0.000103  0.000140  0.000078  0.000002
 11  -2734.52521190  -0.0000001344  0.000014  0.000039  0.000083  0.000001
 12  -2734.52521193  -0.0000000269  0.000018  0.000021  0.000036  0.000001
 13  -2734.52521192   0.0000000082  0.000006  0.000018  0.000034  0.000000
 14  -2734.52521190   0.0000000215  0.000010  0.000011  0.000027  0.000000
                  ***Gradient check signals convergence***
              ***Rediagonalizing the Fockian in SOSCF/NRSCF***

               *****************************************************
               *                     SUCCESS                       *
               *           SCF CONVERGED AFTER  15 CYCLES          *
               *****************************************************


----------------
TOTAL SCF ENERGY
----------------

Total Energy       :        -2734.52521192 Eh          -74410.21396 eV

Components:
Nuclear Repulsion  :          631.10753738 Eh           17173.30917 eV
Electronic Energy  :        -3365.63274930 Eh          -91583.52312 eV
One Electron Energy:        -5065.77017260 Eh         -137846.61438 eV
Two Electron Energy:         1700.13742330 Eh           46263.09126 eV

Virial components:
Potential Energy   :        -5464.32145110 Eh         -148691.74603 eV
Kinetic Energy     :         2729.79623918 Eh           74281.53207 eV
Virial Ratio       :            2.00173235


DFT components:
N(Alpha)           :       39.000031355915 electrons
N(Beta)            :       39.000031355915 electrons
N(Total)           :       78.000062711830 electrons
E(X)               :     -131.551015623762 Eh       
E(C)               :       -3.196840465378 Eh       
E(XC)              :     -134.747856089139 Eh       
DFET-embed. en.    :        0.000000000000 Eh       

---------------
SCF CONVERGENCE
---------------

  Last Energy change         ...   -2.2002e-08  Tolerance :   1.0000e-08
  Last MAX-Density change    ...    1.7846e-06  Tolerance :   1.0000e-07
  Last RMS-Density change    ...    2.4202e-08  Tolerance :   5.0000e-09
  Last Orbital Gradient      ...    6.2299e-07  Tolerance :   1.0000e-05
  Last Orbital Rotation      ...    4.2992e-07  Tolerance :   1.0000e-05

             **** THE GBW FILE WAS UPDATED (AsF5_ts_opt.gbw) ****
             **** DENSITY AsF5_ts_opt.scfp WAS UPDATED ****
             **** ENERGY FILE WAS UPDATED (AsF5_ts_opt.en.tmp) ****
             **** THE GBW FILE WAS UPDATED (AsF5_ts_opt.gbw) ****
             **** DENSITY AsF5_ts_opt.scfp WAS UPDATED ****
----------------
ORBITAL ENERGIES
----------------

  NO   OCC          E(Eh)            E(eV) 
   0   2.0000    -424.324458    -11546.4555 
   1   2.0000     -53.389340     -1452.7978 
   2   2.0000     -47.771812     -1299.9371 
   3   2.0000     -47.771143     -1299.9189 
   4   2.0000     -47.770892     -1299.9121 
   5   2.0000     -24.338531      -662.2851 
   6   2.0000     -24.338530      -662.2851 
   7   2.0000     -24.282725      -660.7665 
   8   2.0000     -24.282722      -660.7664 
   9   2.0000     -24.224877      -659.1924 
  10   2.0000      -6.930277      -188.5824 
  11   2.0000      -5.033936      -136.9804 
  12   2.0000      -5.032498      -136.9412 
  13   2.0000      -5.030884      -136.8973 
  14   2.0000      -1.710632       -46.5487 
  15   2.0000      -1.708215       -46.4829 
  16   2.0000      -1.706122       -46.4260 
  17   2.0000      -1.704800       -46.3900 
  18   2.0000      -1.702597       -46.3300 
  19   2.0000      -1.192608       -32.4525 
  20   2.0000      -1.163327       -31.6557 
  21   2.0000      -1.120839       -30.4996 
  22   2.0000      -1.120074       -30.4788 
  23   2.0000      -1.046660       -28.4811 
  24   2.0000      -0.655498       -17.8370 
  25   2.0000      -0.545159       -14.8345 
  26   2.0000      -0.517766       -14.0891 
  27   2.0000      -0.504122       -13.7179 
  28   2.0000      -0.456431       -12.4201 
  29   2.0000      -0.449895       -12.2423 
  30   2.0000      -0.440620       -11.9899 
  31   2.0000      -0.439677       -11.9642 
  32   2.0000      -0.415703       -11.3118 
  33   2.0000      -0.415075       -11.2948 
  34   2.0000      -0.396085       -10.7780 
  35   2.0000      -0.378679       -10.3044 
  36   2.0000      -0.359449        -9.7811 
  37   2.0000      -0.344777        -9.3819 
  38   2.0000      -0.297070        -8.0837 
  39   0.0000      -0.216290        -5.8856 
  40   0.0000       0.008991         0.2446 
  41   0.0000       0.027222         0.7408 
  42   0.0000       0.068814         1.8725 
  43   0.0000       0.156991         4.2719 
  44   0.0000       0.210374         5.7246 
  45   0.0000       0.211460         5.7541 
  46   0.0000       0.224088         6.0977 
  47   0.0000       0.314446         8.5565 
  48   0.0000       0.319440         8.6924 
  49   0.0000       0.329442         8.9646 
  50   0.0000       0.337691         9.1890 
  51   0.0000       0.363700         9.8968 
  52   0.0000       0.470625        12.8064 
  53   0.0000       0.484219        13.1763 
  54   0.0000       0.484362        13.1802 
  55   0.0000       0.491053        13.3622 
  56   0.0000       0.524274        14.2662 
  57   0.0000       0.550134        14.9699 
  58   0.0000       0.551220        14.9995 
  59   0.0000       0.598685        16.2911 
  60   0.0000       0.605813        16.4850 
  61   0.0000       0.641400        17.4534 
  62   0.0000       0.651517        17.7287 
  63   0.0000       0.663526        18.0555 
  64   0.0000       0.682715        18.5776 
  65   0.0000       0.759716        20.6729 
  66   0.0000       0.762219        20.7410 
  67   0.0000       0.850423        23.1412 
  68   0.0000       0.866141        23.5689 
  69   0.0000       0.923949        25.1419 
  70   0.0000       0.961608        26.1667 
  71   0.0000       0.969665        26.3859 
  72   0.0000       0.970039        26.3961 
  73   0.0000       0.994547        27.0630 
  74   0.0000       1.049144        28.5487 
  75   0.0000       1.067173        29.0392 
  76   0.0000       1.087017        29.5792 
  77   0.0000       1.089467        29.6459 
  78   0.0000       1.095722        29.8161 
  79   0.0000       1.139459        31.0063 
  80   0.0000       1.280293        34.8385 
  81   0.0000       1.288708        35.0675 
  82   0.0000       1.295273        35.2462 
  83   0.0000       1.446943        39.3733 
  84   0.0000       1.791456        48.7480 
  85   0.0000       1.831315        49.8326 
  86   0.0000       1.833895        49.9028 
  87   0.0000       1.864229        50.7283 
  88   0.0000       1.870031        50.8861 
  89   0.0000       1.901535        51.7434 
  90   0.0000       1.922658        52.3182 
  91   0.0000       1.923707        52.3467 
  92   0.0000       1.959503        53.3208 
  93   0.0000       2.104627        57.2698 
  94   0.0000       2.125829        57.8468 
  95   0.0000       2.191224        59.6262 
  96   0.0000       2.196309        59.7646 
  97   0.0000       2.211054        60.1659 
  98   0.0000       2.273579        61.8672 
  99   0.0000       2.293845        62.4187 
 100   0.0000       2.297393        62.5153 
 101   0.0000       2.362134        64.2769 
 102   0.0000       2.368687        64.4553 
 103   0.0000       2.401067        65.3363 
 104   0.0000       2.411558        65.6218 
 105   0.0000       2.504979        68.1639 
 106   0.0000       2.513211        68.3879 
 107   0.0000       2.531198        68.8774 
 108   0.0000       2.548122        69.3379 
 109   0.0000       2.606243        70.9195 
 110   0.0000       2.618902        71.2639 
 111   0.0000       2.628540        71.5262 
 112   0.0000       2.843547        77.3769 
 113   0.0000       2.883809        78.4724 
 114   0.0000       2.944301        80.1185 
 115   0.0000       3.012049        81.9620 
 116   0.0000       3.074702        83.6669 
 117   0.0000       3.128446        85.1293 
 118   0.0000       3.132627        85.2431 
 119   0.0000       3.143497        85.5389 
 120   0.0000       3.175826        86.4186 
 121   0.0000       3.176058        86.4249 
 122   0.0000       3.195405        86.9514 
 123   0.0000       3.206143        87.2436 
 124   0.0000       3.382823        92.0513 
 125   0.0000       3.410698        92.8098 
 126   0.0000       3.454471        94.0009 
 127   0.0000       3.490453        94.9801 
 128   0.0000       3.687268       100.3357 
 129   0.0000       3.726795       101.4112 
 130   0.0000       3.732646       101.5705 
 131   0.0000       3.740989       101.7975 
 132   0.0000       3.938509       107.1723 
 133   0.0000       4.356577       118.5485 
 134   0.0000       4.376371       119.0871 
 135   0.0000       4.396352       119.6308 
 136   0.0000       4.800300       130.6228 
 137   0.0000       5.995153       163.1364 
 138   0.0000       6.621177       180.1714 
 139   0.0000       6.630907       180.4362 
 140   0.0000       6.638050       180.6305 
 141   0.0000       6.641433       180.7226 
 142   0.0000       6.647521       180.8883 
 143   0.0000       6.652437       181.0220 
 144   0.0000       6.652689       181.0289 
 145   0.0000       6.652773       181.0312 
 146   0.0000       6.656654       181.1368 
 147   0.0000       6.663582       181.3253 
 148   0.0000       6.665593       181.3800 
 149   0.0000       6.676847       181.6862 
 150   0.0000       6.691815       182.0935 
 151   0.0000       6.693209       182.1315 
 152   0.0000       6.695750       182.2006 
 153   0.0000       6.699468       182.3018 
 154   0.0000       6.700350       182.3258 
 155   0.0000       6.700494       182.3297 
 156   0.0000       6.710429       182.6000 
 157   0.0000       6.719453       182.8456 
 158   0.0000       6.738074       183.3523 
 159   0.0000       6.744699       183.5326 
 160   0.0000       6.755253       183.8198 
 161   0.0000       6.757729       183.8871 
 162   0.0000       6.774548       184.3448 
 163   0.0000       6.774953       184.3558 
 164   0.0000       6.780974       184.5197 
 165   0.0000       6.806559       185.2159 
 166   0.0000       6.825638       185.7351 
 167   0.0000       6.879108       187.1901 
 168   0.0000       6.880130       187.2179 
 169   0.0000       6.881429       187.2532 
 170   0.0000       6.968297       189.6170 
 171   0.0000       6.983877       190.0410 
 172   0.0000       7.009614       190.7413 
 173   0.0000       8.012165       218.0221 
 174   0.0000       8.045437       218.9275 
 175   0.0000       8.048352       219.0068 
 176   0.0000       8.080409       219.8791 
 177   0.0000       8.086018       220.0317 
 178   0.0000       8.087359       220.0682 
 179   0.0000       8.102242       220.4732 
 180   0.0000       8.114522       220.8074 
 181   0.0000       8.149348       221.7550 
 182   0.0000       8.179016       222.5624 
 183   0.0000       8.212964       223.4861 
 184   0.0000       8.305928       226.0158 
 185   0.0000       8.337258       226.8683 
 186   0.0000       8.371684       227.8051 
 187   0.0000       8.377373       227.9599 
 188   0.0000       8.465024       230.3450 
 189   0.0000       8.469357       230.4629 
 190   0.0000       8.497512       231.2291 
 191   0.0000       8.541749       232.4328 
 192   0.0000       8.543510       232.4807 
 193   0.0000       8.699655       236.7297 
 194   0.0000       8.777626       238.8513 
 195   0.0000       8.786187       239.0843 
 196   0.0000       8.846718       240.7314 
 197   0.0000       8.899709       242.1734 
 198   0.0000      56.420824      1535.2887 
 199   0.0000      56.512473      1537.7826 
 200   0.0000      56.525898      1538.1479 
 201   0.0000      56.624666      1540.8355 
 202   0.0000      56.670366      1542.0791 

                    ********************************
                    * MULLIKEN POPULATION ANALYSIS *
                    ********************************

-----------------------
MULLIKEN ATOMIC CHARGES
-----------------------
   0 As:    1.229802
   1 F :   -0.309763
   2 F :   -0.216398
   3 F :   -0.216398
   4 F :   -0.243621
   5 F :   -0.243621
Sum of atomic charges:   -0.0000000

--------------------------------
MULLIKEN REDUCED ORBITAL CHARGES
--------------------------------
  0 Ass       :     7.082894  s :     7.082894
      pz      :     4.591656  p :    13.740820
      px      :     4.564615
      py      :     4.584549
      dz2     :     2.171186  d :    10.706007
      dxz     :     2.151401
      dyz     :     2.118168
      dx2y2   :     2.121571
      dxy     :     2.143682
      f0      :     0.051712  f :     0.240477
      f+1     :     0.043564
      f-1     :     0.041258
      f+2     :     0.023778
      f-2     :     0.009576
      f+3     :     0.042081
      f-3     :     0.028508
  1 F s       :     3.911209  s :     3.911209
      pz      :     1.936862  p :     5.387750
      px      :     1.871170
      py      :     1.579718
      dz2     :     0.002098  d :     0.010481
      dxz     :     0.000189
      dyz     :     0.002300
      dx2y2   :     0.003379
      dxy     :     0.002515
      f0      :     0.000032  f :     0.000323
      f+1     :     0.000009
      f-1     :     0.000094
      f+2     :     0.000041
      f-2     :     0.000006
      f+3     :     0.000064
      f-3     :     0.000077
  2 F s       :     3.926574  s :     3.926574
      pz      :     1.903208  p :     5.279114
      px      :     1.511005
      py      :     1.864900
      dz2     :     0.001371  d :     0.010391
      dxz     :     0.002389
      dyz     :     0.000157
      dx2y2   :     0.003549
      dxy     :     0.002926
      f0      :     0.000033  f :     0.000319
      f+1     :     0.000063
      f-1     :     0.000010
      f+2     :     0.000040
      f-2     :     0.000009
      f+3     :     0.000085
      f-3     :     0.000079
  3 F s       :     3.926574  s :     3.926574
      pz      :     1.903208  p :     5.279114
      px      :     1.511005
      py      :     1.864900
      dz2     :     0.001371  d :     0.010391
      dxz     :     0.002389
      dyz     :     0.000157
      dx2y2   :     0.003549
      dxy     :     0.002926
      f0      :     0.000033  f :     0.000319
      f+1     :     0.000063
      f-1     :     0.000010
      f+2     :     0.000040
      f-2     :     0.000009
      f+3     :     0.000085
      f-3     :     0.000079
  4 F s       :     3.921263  s :     3.921263
      pz      :     1.607556  p :     5.311078
      px      :     1.895738
      py      :     1.807783
      dz2     :     0.004123  d :     0.010941
      dxz     :     0.002208
      dyz     :     0.003575
      dx2y2   :     0.000657
      dxy     :     0.000378
      f0      :     0.000112  f :     0.000340
      f+1     :     0.000060
      f-1     :     0.000112
      f+2     :     0.000032
      f-2     :     0.000021
      f+3     :     0.000001
      f-3     :     0.000002
  5 F s       :     3.921263  s :     3.921263
      pz      :     1.607556  p :     5.311078
      px      :     1.895738
      py      :     1.807783
      dz2     :     0.004123  d :     0.010941
      dxz     :     0.002208
      dyz     :     0.003575
      dx2y2   :     0.000657
      dxy     :     0.000378
      f0      :     0.000112  f :     0.000340
      f+1     :     0.000060
      f-1     :     0.000112
      f+2     :     0.000032
      f-2     :     0.000021
      f+3     :     0.000001
      f-3     :     0.000002


                     *******************************
                     * LOEWDIN POPULATION ANALYSIS *
                     *******************************

----------------------
LOEWDIN ATOMIC CHARGES
----------------------
   0 As:    0.381902
   1 F :   -0.148584
   2 F :   -0.040453
   3 F :   -0.040453
   4 F :   -0.076206
   5 F :   -0.076206

-------------------------------
LOEWDIN REDUCED ORBITAL CHARGES
-------------------------------
  0 Ass       :     6.766241  s :     6.766241
      pz      :     4.601120  p :    13.769946
      px      :     4.579698
      py      :     4.589128
      dz2     :     2.451511  d :    11.503435
      dxz     :     2.250869
      dyz     :     2.208332
      dx2y2   :     2.334277
      dxy     :     2.258446
      f0      :     0.125676  f :     0.578475
      f+1     :     0.100934
      f-1     :     0.113745
      f+2     :     0.047453
      f-2     :     0.020936
      f+3     :     0.092981
      f-3     :     0.076750
  1 F s       :     3.746041  s :     3.746041
      pz      :     1.904352  p :     5.383535
      px      :     1.833009
      py      :     1.646174
      dz2     :     0.004009  d :     0.018436
      dxz     :     0.000246
      dyz     :     0.003442
      dx2y2   :     0.008454
      dxy     :     0.002284
      f0      :     0.000048  f :     0.000572
      f+1     :     0.000010
      f-1     :     0.000165
      f+2     :     0.000069
      f-2     :     0.000007
      f+3     :     0.000072
      f-3     :     0.000202
  2 F s       :     3.745230  s :     3.745230
      pz      :     1.859478  p :     5.276634
      px      :     1.593749
      py      :     1.823406
      dz2     :     0.003231  d :     0.018016
      dxz     :     0.002505
      dyz     :     0.000199
      dx2y2   :     0.008256
      dxy     :     0.003825
      f0      :     0.000040  f :     0.000574
      f+1     :     0.000135
      f-1     :     0.000015
      f+2     :     0.000049
      f-2     :     0.000016
      f+3     :     0.000181
      f-3     :     0.000138
  3 F s       :     3.745230  s :     3.745230
      pz      :     1.859478  p :     5.276634
      px      :     1.593749
      py      :     1.823406
      dz2     :     0.003231  d :     0.018016
      dxz     :     0.002505
      dyz     :     0.000199
      dx2y2   :     0.008256
      dxy     :     0.003825
      f0      :     0.000040  f :     0.000574
      f+1     :     0.000135
      f-1     :     0.000015
      f+2     :     0.000049
      f-2     :     0.000016
      f+3     :     0.000181
      f-3     :     0.000138
  4 F s       :     3.742206  s :     3.742206
      pz      :     1.674702  p :     5.313672
      px      :     1.853149
      py      :     1.785821
      dz2     :     0.010480  d :     0.019709
      dxz     :     0.002336
      dyz     :     0.005654
      dx2y2   :     0.000866
      dxy     :     0.000373
      f0      :     0.000268  f :     0.000619
      f+1     :     0.000077
      f-1     :     0.000201
      f+2     :     0.000044
      f-2     :     0.000024
      f+3     :     0.000002
      f-3     :     0.000004
  5 F s       :     3.742206  s :     3.742206
      pz      :     1.674702  p :     5.313672
      px      :     1.853149
      py      :     1.785821
      dz2     :     0.010480  d :     0.019709
      dxz     :     0.002336
      dyz     :     0.005654
      dx2y2   :     0.000866
      dxy     :     0.000373
      f0      :     0.000268  f :     0.000619
      f+1     :     0.000077
      f-1     :     0.000201
      f+2     :     0.000044
      f-2     :     0.000024
      f+3     :     0.000002
      f-3     :     0.000004


                      *****************************
                      * MAYER POPULATION ANALYSIS *
                      *****************************

  NA   - Mulliken gross atomic population
  ZA   - Total nuclear charge
  QA   - Mulliken gross atomic charge
  VA   - Mayer's total valence
  BVA  - Mayer's bonded valence
  FA   - Mayer's free valence

  ATOM       NA         ZA         QA         VA         BVA        FA
  0 As    31.7702    33.0000     1.2298     5.3277     5.3277    -0.0000
  1 F      9.3098     9.0000    -0.3098     0.9952     0.9952     0.0000
  2 F      9.2164     9.0000    -0.2164     1.1883     1.1883     0.0000
  3 F      9.2164     9.0000    -0.2164     1.1883     1.1883    -0.0000
  4 F      9.2436     9.0000    -0.2436     1.1288     1.1288    -0.0000
  5 F      9.2436     9.0000    -0.2436     1.1288     1.1288     0.0000

  Mayer bond orders larger than 0.100000
B(  0-As,  1-F ) :   1.0157 B(  0-As,  2-F ) :   1.0824 B(  0-As,  3-F ) :   1.0824 
B(  0-As,  4-F ) :   1.0736 B(  0-As,  5-F ) :   1.0736 

-------
TIMINGS
-------

Total SCF time: 0 days 0 hours 0 min 12 sec 

Total time                  ....      12.709 sec
Sum of individual times     ....      12.348 sec  ( 97.2%)

Fock matrix formation       ....      11.201 sec  ( 88.1%)
  Split-RI-J                ....       3.323 sec  ( 29.7% of F)
  XC integration            ....       7.802 sec  ( 69.7% of F)
    Basis function eval.    ....       2.643 sec  ( 33.9% of XC)
    Density eval.           ....       2.186 sec  ( 28.0% of XC)
    XC-Functional eval.     ....       0.431 sec  (  5.5% of XC)
    XC-Potential eval.      ....       2.058 sec  ( 26.4% of XC)
Diagonalization             ....       0.061 sec  (  0.5%)
Density matrix formation    ....       0.016 sec  (  0.1%)
Population analysis         ....       0.018 sec  (  0.1%)
Initial guess               ....       0.362 sec  (  2.8%)
Orbital Transformation      ....       0.000 sec  (  0.0%)
Orbital Orthonormalization  ....       0.000 sec  (  0.0%)
DIIS solution               ....       0.056 sec  (  0.4%)
SOSCF solution              ....       0.071 sec  (  0.6%)
Grid generation             ....       0.563 sec  (  4.4%)

Maximum memory used throughout the entire SCF-calculation: 78.0 MB

-------------------------   --------------------
FINAL SINGLE POINT ENERGY     -2734.525211921022
-------------------------   --------------------

------------------------------------------------------------------------------
                         ORCA SCF GRADIENT CALCULATION
------------------------------------------------------------------------------

Gradient of the Kohn-Sham DFT energy:
Kohn-Sham wavefunction type      ... RKS
Hartree-Fock exchange scaling    ...    0.000
Number of operators              ...    1
Number of atoms                  ...    6
Basis set dimensions             ...  203
Integral neglect threshold       ... 2.5e-11
Integral primitive cutoff        ... 2.5e-12
SHARK Integral package           ... ON

Nuc. rep. gradient       (SHARK) ... done (  0.0 sec)
HCore & Overlap gradient (SHARK) ... done (  0.1 sec)
RI-J gradient            (SHARK) ... done (  1.7 sec)
Exchange-correlation gradient    ... done

------------------
CARTESIAN GRADIENT
------------------

   1   As  :    0.000000000   -0.114462447    0.000000001
   2   F   :   -0.000000001   -0.046508535   -0.000000000
   3   F   :   -0.004902465    0.027443460    0.000000002
   4   F   :    0.004902470    0.027443462    0.000000001
   5   F   :   -0.000000001    0.053042030   -0.058279782
   6   F   :   -0.000000002    0.053042031    0.058279778

Difference to translation invariance:
           :    0.0000000000    0.0000000000   -0.0000000000

Difference to rotation invariance:
           :   -0.0000000022    0.0000000003    0.0000000054

Norm of the cartesian gradient     ...    0.1709942416
RMS gradient                       ...    0.0403037293
MAX gradient                       ...    0.1144624471

-------
TIMINGS
-------

Total SCF gradient time            ...        4.221 sec

One electron gradient       ....       0.106 sec  (  2.5%)
RI-J Coulomb gradient       ....       1.681 sec  ( 39.8%)
XC gradient                 ....       2.338 sec  ( 55.4%)

Maximum memory used throughout the entire SCFGRAD-calculation: 77.0 MB
------------------------------------------------------------------------------
                         ORCA GEOMETRY RELAXATION STEP
------------------------------------------------------------------------------

Reading the OPT-File                    .... done
Getting information on internals        .... done
Copying old internal coords+grads       .... done
Making the new internal coordinates     .... (new redundants).... done
Validating the new internal coordinates .... (new redundants).... done
Calculating the B-matrix                .... done
Calculating the G,G- and P matrices     .... done
Transforming gradient to internals      .... done
Projecting the internal gradient        .... done
Number of atoms                         ....   6
Number of internal coordinates          ....  15
Current Energy                          .... -2734.525211921 Eh
Current gradient norm                   ....     0.170994242 Eh/bohr
Maximum allowed component of the step   ....  0.300
Current trust radius                    ....  0.300
Evaluating the initial hessian          ....  (read) 
(Reading Exact Hessian)...  
InHessName: AsF5_ts_guess.hess	The file <AsF5_ts_guess.hess> is opened as a .hess file
done
done
Diagonalizing the Hessian               .... done
Dimension of the hessian                .... 15
Lowest eigenvalues of the non projected Hessian:
 -0.066033273 -0.000134423 -0.000000014  0.000185851  0.032821572
done
Projecting the Hessian                  .... done
Diagonalizing the Hessian               .... done
Dimension of the hessian                ....  15
Lowest eigenvalues of the Hessian:
 -0.066054040  0.033093778  0.162809807  0.195065605  0.195945649
Hessian has   1 negative eigenvalues
Taking P-RFO step
Searching for lambda that maximizes along the lowest mode
TS mode is mode number   0 with eigenvalue  -0.06605404 and components:
   1.    0.00000001
   2.   -0.01743004
   3.    0.01743005
   4.    0.00000000
   5.    0.00000000
   6.    0.59873525
   7.   -0.00000003
   8.   -0.00000001
   9.    0.26571819
  10.   -0.26571818
  11.   -0.00000000
  12.    0.26571819
  13.   -0.26571818
  14.   -0.00000001
  15.   -0.59873523

Lambda that maximizes along the TS mode:       0.00000000
Searching for lambda that minimizes along all other modes
In cycle   1: lambdaN =  -0.06126113   step =   0.06126113
In cycle   2: lambdaN =  -0.09424076   step =   0.03297964
In cycle   3: lambdaN =  -0.09586109   step =   0.00162032
In cycle   4: lambdaN =  -0.09586368   step =   0.00000259
In cycle   5: lambdaN =  -0.09586368   step =   0.00000000
Lambda that minimizes along all other modes:  -0.09586368
Calculated stepsize too large (   0.5250 >    0.3000). Scaled with    0.5715.
The final length of the internal step   ....       0.3000
Converting the step to cartesian space:
 Initial RMS(Int)=    0.0774596669
Transforming coordinates:
 Iter   0:  RMS(Cart)=    0.0787566628 RMS(Int)=    0.0776359699
 Iter   1:  RMS(Cart)=    0.0058683921 RMS(Int)=    0.0062218716
 Iter   2:  RMS(Cart)=    0.0003105528 RMS(Int)=    0.0003415126
 Iter   3:  RMS(Cart)=    0.0000487945 RMS(Int)=    0.0000491210
 Iter   4:  RMS(Cart)=    0.0000029437 RMS(Int)=    0.0000032645
 Iter   5:  RMS(Cart)=    0.0000004193 RMS(Int)=    0.0000004060
 Iter   6:  RMS(Cart)=    0.0000000288 RMS(Int)=    0.0000000305
done
Storing new coordinates                 .... done

                                .--------------------.
          ----------------------|Geometry convergence|-------------------------
          Item                value                   Tolerance       Converged
          ---------------------------------------------------------------------
          RMS gradient        0.0516394782            0.0001000000      NO
          MAX gradient        0.1381045080            0.0003000000      NO
          RMS step            0.0774596669            0.0020000000      NO
          MAX step            0.1714411468            0.0040000000      NO
          ........................................................
          Max(Bonds)      0.0068      Max(Angles)    9.82
          Max(Dihed)        0.00      Max(Improp)    0.00
          ---------------------------------------------------------------------

The optimization has not yet converged - more geometry cycles are needed


    ---------------------------------------------------------------------------
                         Redundant Internal Coordinates
                            (Angstroem and degrees)

        Definition                    Value    dE/dq     Step     New-Value  comp.(TS mode)
    ----------------------------------------------------------------------------
     1. B(F   1,As  0)                1.7190 -0.046509 -0.0068    1.7122   
     2. B(F   2,As  0)                1.6934 -0.011840  0.0020    1.6955   
     3. B(F   3,As  0)                1.6934 -0.011840  0.0020    1.6955   
     4. B(F   4,As  0)                1.6934 -0.042561  0.0024    1.6958   
     5. B(F   5,As  0)                1.6934 -0.042561  0.0024    1.6958   
     6. A(F   1,As  0,F   3)          105.00 -0.028616    4.75    109.75          0.60
     7. A(F   2,As  0,F   3)          149.99  0.057231   -9.49    140.50   
     8. A(F   1,As  0,F   4)           75.00 -0.069052    5.61     80.60   
     9. A(F   2,As  0,F   4)           93.84  0.010134   -0.22     93.63          0.27
    10. A(F   3,As  0,F   4)           93.84  0.010134   -0.22     93.63          0.27
    11. A(F   1,As  0,F   5)           75.00 -0.069052    5.61     80.60   
    12. A(F   2,As  0,F   5)           93.84  0.010134   -0.22     93.63          0.27
    13. A(F   3,As  0,F   5)           93.84  0.010134   -0.22     93.63          0.27
    14. A(F   4,As  0,F   5)          149.99 -0.138105    9.82    159.82   
    15. A(F   1,As  0,F   2)          105.00 -0.028616    4.75    109.75          0.60
    ----------------------------------------------------------------------------

         *************************************************************
         *                GEOMETRY OPTIMIZATION CYCLE   2            *
         *************************************************************
---------------------------------
CARTESIAN COORDINATES (ANGSTROEM)
---------------------------------
  As    -0.000000    0.095284    0.000000
  F      0.000000    1.807443    0.000000
  F      1.595244   -0.478973   -0.000000
  F     -1.595244   -0.478973   -0.000000
  F      0.000000    0.387110    1.670544
  F      0.000000    0.387110   -1.670544

----------------------------
CARTESIAN COORDINATES (A.U.)
----------------------------
  NO LB      ZA    FRAG     MASS         X           Y           Z
   0 As   33.0000    0    74.920   -0.000000    0.180061    0.000000
   1 F     9.0000    0    18.998    0.000000    3.415571    0.000000
   2 F     9.0000    0    18.998    3.014575   -0.905128   -0.000000
   3 F     9.0000    0    18.998   -3.014575   -0.905128   -0.000000
   4 F     9.0000    0    18.998    0.000000    0.731532    3.156871
   5 F     9.0000    0    18.998    0.000000    0.731532   -3.156871

--------------------------------
INTERNAL COORDINATES (ANGSTROEM)
--------------------------------
 As     0   0   0     0.000000000000     0.00000000     0.00000000
 F      1   0   0     1.712158503023     0.00000000     0.00000000
 F      1   2   0     1.695457261354   109.79789924     0.00000000
 F      1   2   3     1.695457265027   109.79789970   180.00000000
 F      1   2   3     1.695842038945    80.09103841    90.00000007
 F      1   2   3     1.695842035475    80.09103842   270.00000051

---------------------------
INTERNAL COORDINATES (A.U.)
---------------------------
 As     0   0   0     0.000000000000     0.00000000     0.00000000
 F      1   0   0     3.235510668578     0.00000000     0.00000000
 F      1   2   0     3.203949895727   109.79789924     0.00000000
 F      1   2   3     3.203949902667   109.79789970   180.00000000
 F      1   2   3     3.204677019996    80.09103841    90.00000007
 F      1   2   3     3.204677013439    80.09103842   270.00000051

------------------------------------------------------------------------------
                   ___                                                        
                  /   \      - P O W E R E D   B Y -                         
                 /     \                                                     
                 |  |  |   _    _      __       _____    __    __             
                 |  |  |  | |  | |    /  \     |  _  \  |  |  /  |          
                  \  \/   | |  | |   /    \    | | | |  |  | /  /          
                 / \  \   | |__| |  /  /\  \   | |_| |  |  |/  /          
                |  |  |   |  __  | /  /__\  \  |    /   |      \           
                |  |  |   | |  | | |   __   |  |    \   |  |\   \          
                \     /   | |  | | |  |  |  |  | |\  \  |  | \   \       
                 \___/    |_|  |_| |__|  |__|  |_| \__\ |__|  \__/        
                                                                              
                      - O R C A' S   B I G   F R I E N D -                    
                                      &                                       
                       - I N T E G R A L  F E E D E R -                       
                                                                              
 v1 FN, 2020, v2 2021                                                         
------------------------------------------------------------------------------


Reading SHARK input file AsF5_ts_opt.SHARKINP.tmp ... ok
----------------------
SHARK INTEGRAL PACKAGE
----------------------

Number of atoms                             ...      6
Number of basis functions                   ...    203
Number of shells                            ...     71
Maximum angular momentum                    ...      3
Integral batch strategy                     ... SHARK/LIBINT Hybrid
RI-J (if used) integral strategy            ... SPLIT-RIJ (Revised 2003 algorithm where possible)
Printlevel                                  ...      1
Contraction scheme used                     ... SEGMENTED contraction
Coulomb Range Separation                    ... NOT USED
Exchange Range Separation                   ... NOT USED
Finite Nucleus Model                        ... NOT USED
Auxiliary Coulomb fitting basis             ... AVAILABLE
   # of basis functions in Aux-J            ...    303
   # of shells in Aux-J                     ...     93
   Maximum angular momentum in Aux-J        ...      4
Auxiliary J/K fitting basis                 ... NOT available
Auxiliary Correlation fitting basis         ... NOT available
Auxiliary 'external' fitting basis          ... NOT available
Integral threshold                          ...     2.500000e-11
Primitive cut-off                           ...     2.500000e-12
Primitive pair pre-selection threshold      ...     2.500000e-12

Calculating pre-screening integrals         ... done (  0.1 sec) Dimension = 71
Organizing shell pair data                  ... done (  0.0 sec)
Shell pair information
Total number of shell pairs                 ...      2556
Shell pairs after pre-screening             ...      2295
Total number of primitive shell pairs       ...      9906
Primitive shell pairs kept                  ...      6390
          la=0 lb=0:    397 shell pairs
          la=1 lb=0:    570 shell pairs
          la=1 lb=1:    208 shell pairs
          la=2 lb=0:    379 shell pairs
          la=2 lb=1:    272 shell pairs
          la=2 lb=2:    101 shell pairs
          la=3 lb=0:    152 shell pairs
          la=3 lb=1:    116 shell pairs
          la=3 lb=2:     80 shell pairs
          la=3 lb=3:     20 shell pairs

Calculating one electron integrals          ... done (  0.0 sec)
Calculating RI/J V-Matrix + Cholesky decomp.... done (  0.0 sec)
Calculating Nuclear repulsion               ... done (  0.0 sec) ENN=    628.154639443011 Eh

SHARK setup successfully completed in   0.3 seconds

Maximum memory used throughout the entire GTOINT-calculation: 64.6 MB

Diagonalization of the overlap matrix:
Smallest eigenvalue                        ... 2.263e-03
Time for diagonalization                   ...    0.005 sec
Threshold for overlap eigenvalues          ... 1.000e-08
Number of eigenvalues below threshold      ... 0
Time for construction of square roots      ...    0.004 sec
Total time needed                          ...    0.009 sec

-------------------
DFT GRID GENERATION
-------------------

General Integration Accuracy     IntAcc      ... 4.388
Radial Grid Type                 RadialGrid  ... OptM3 with GC (2021)
Angular Grid (max. ang.)         AngularGrid ... 4 (Lebedev-302)
Angular grid pruning method      GridPruning ... 4 (adaptive)
Weight generation scheme         WeightScheme... Becke
Basis function cutoff            BFCut       ... 1.0000e-11
Integration weight cutoff        WCut        ... 1.0000e-14
Angular grids for H and He will be reduced by one unit
Partially contracted basis set               ... off
Rotationally invariant grid construction     ... off

Total number of grid points                  ...    41933
Total number of batches                      ...      658
Average number of points per batch           ...       63
Average number of grid points per atom       ...     6989
Time for grid setup =    0.402 sec

--------------
SCF ITERATIONS
--------------
ITER       Energy         Delta-E        Max-DP      RMS-DP      [F,P]     Damp
               ***  Starting incremental Fock matrix formation  ***
  0  -2734.5551383342   0.000000000000 0.00603823  0.00022747  0.0313102 0.7000
  1  -2734.5583290615  -0.003190727318 0.00607746  0.00021541  0.0232279 0.7000
                               ***Turning on DIIS***
  2  -2734.5607331390  -0.002404077542 0.01705867  0.00056776  0.0168149 0.0000
                      *** Initiating the SOSCF procedure ***
                           *** Shutting down DIIS ***
                      *** Re-Reading the Fockian *** 
                      *** Removing any level shift *** 
ITER      Energy       Delta-E        Grad      Rot      Max-DP    RMS-DP
  3  -2734.56634370  -0.0056105623  0.000976  0.000976  0.002816  0.000047
               *** Restarting incremental Fock matrix formation ***
  4  -2734.56635930  -0.0000155996  0.001034  0.003835  0.004145  0.000073
  5  -2734.56630386   0.0000554362  0.001903  0.001271  0.003068  0.000045
  6  -2734.56637826  -0.0000743980  0.000204  0.000600  0.000507  0.000012
  7  -2734.56637600   0.0000022631  0.000389  0.000449  0.000525  0.000008
  8  -2734.56637886  -0.0000028603  0.000045  0.000123  0.000125  0.000003
  9  -2734.56637874   0.0000001194  0.000093  0.000082  0.000073  0.000002
 10  -2734.56637891  -0.0000001663  0.000017  0.000024  0.000128  0.000001
 11  -2734.56637891  -0.0000000039  0.000025  0.000013  0.000071  0.000001
                  ***Gradient check signals convergence***
              ***Rediagonalizing the Fockian in SOSCF/NRSCF***

               *****************************************************
               *                     SUCCESS                       *
               *           SCF CONVERGED AFTER  12 CYCLES          *
               *****************************************************

Total Energy       :        -2734.56637891 Eh          -74411.33417 eV
  Last Energy change         ...    4.2464e-09  Tolerance :   1.0000e-08
  Last MAX-Density change    ...    2.2404e-06  Tolerance :   1.0000e-07
             **** THE GBW FILE WAS UPDATED (AsF5_ts_opt.gbw) ****
             **** DENSITY AsF5_ts_opt.scfp WAS UPDATED ****
             **** ENERGY FILE WAS UPDATED (AsF5_ts_opt.en.tmp) ****
             **** THE GBW FILE WAS UPDATED (AsF5_ts_opt.gbw) ****
             **** DENSITY AsF5_ts_opt.scfp WAS UPDATED ****
Total SCF time: 0 days 0 hours 0 min 9 sec 

Maximum memory used throughout the entire SCF-calculation: 78.0 MB

-------------------------   --------------------
FINAL SINGLE POINT ENERGY     -2734.566378906260
-------------------------   --------------------

------------------------------------------------------------------------------
                         ORCA SCF GRADIENT CALCULATION
------------------------------------------------------------------------------

Gradient of the Kohn-Sham DFT energy:
Kohn-Sham wavefunction type      ... RKS
Hartree-Fock exchange scaling    ...    0.000
Number of operators              ...    1
Number of atoms                  ...    6
Basis set dimensions             ...  203
Integral neglect threshold       ... 2.5e-11
Integral primitive cutoff        ... 2.5e-12
SHARK Integral package           ... ON

Nuc. rep. gradient       (SHARK) ... done (  0.0 sec)
HCore & Overlap gradient (SHARK) ... done (  0.1 sec)
RI-J gradient            (SHARK) ... done (  1.6 sec)
Exchange-correlation gradient    ... done

------------------
CARTESIAN GRADIENT
------------------

   1   As  :   -0.000000000   -0.079852849   -0.000000001
   2   F   :    0.000000000   -0.026664857   -0.000000000
   3   F   :   -0.002032528    0.019132431   -0.000000002
   4   F   :    0.002032527    0.019132430   -0.000000002
   5   F   :    0.000000000    0.034126424   -0.036076415
   6   F   :    0.000000000    0.034126420    0.036076421

Difference to translation invariance:
           :    0.0000000000   -0.0000000000    0.0000000000

Difference to rotation invariance:
           :   -0.0000000035    0.0000000008    0.0000000029

Norm of the cartesian gradient     ...    0.1129605924
RMS gradient                       ...    0.0266250670
MAX gradient                       ...    0.0798528489

-------
TIMINGS
-------

Total SCF gradient time            ...        4.181 sec

One electron gradient       ....       0.113 sec  (  2.7%)
RI-J Coulomb gradient       ....       1.633 sec  ( 39.1%)
XC gradient                 ....       2.340 sec  ( 56.0%)

Maximum memory used throughout the entire SCFGRAD-calculation: 78.7 MB
------------------------------------------------------------------------------
                         ORCA GEOMETRY RELAXATION STEP
------------------------------------------------------------------------------

Reading the OPT-File                    .... done
Getting information on internals        .... done
Copying old internal coords+grads       .... done
Making the new internal coordinates     .... (new redundants).... done
Validating the new internal coordinates .... (new redundants).... done
Calculating the B-matrix                .... done
Calculating the G,G- and P matrices     .... done
Transforming gradient to internals      .... done
Projecting the internal gradient        .... done
Number of atoms                         ....   6
Number of internal coordinates          ....  15
Current Energy                          .... -2734.566378906 Eh
Current gradient norm                   ....     0.112960592 Eh/bohr
Maximum allowed component of the step   ....  0.300
Current trust radius                    ....  0.300
Updating the Hessian (Bofill)          .... Diagonalizing the Hessian               .... done
Dimension of the hessian                ....  15
Lowest eigenvalues of the Hessian:
 -0.066033271  0.040932630  0.193768707  0.195065605  0.195873819
Hessian has   1 negative eigenvalues
Taking P-RFO step
Searching for lambda that maximizes along the lowest mode
TS mode is mode number   0 with eigenvalue  -0.06603327 and components:
   1.   -0.00004562
   2.    0.01664409
   3.   -0.01662781
   4.   -0.00002109
   5.   -0.00002111
   6.   -0.59884056
   7.    0.00002388
   8.    0.00006962
   9.   -0.26566154
  10.    0.26561523
  11.    0.00006964
  12.   -0.26566148
  13.    0.26561530
  14.    0.00013926
  15.    0.59881669

Lambda that maximizes along the TS mode:       0.00000000
Searching for lambda that minimizes along all other modes
In cycle   1: lambdaN =  -0.03912120   step =   0.03912120
In cycle   2: lambdaN =  -0.04352592   step =   0.00440472
In cycle   3: lambdaN =  -0.04354473   step =   0.00001880
In cycle   4: lambdaN =  -0.04354473   step =   0.00000000
Lambda that minimizes along all other modes:  -0.04354473
Calculated stepsize too large (   0.4180 >    0.3000). Scaled with    0.7176.
The final length of the internal step   ....       0.3000
Converting the step to cartesian space:
 Initial RMS(Int)=    0.0774596669
Transforming coordinates:
 Iter   0:  RMS(Cart)=    0.0810323685 RMS(Int)=    0.0779809453
 Iter   1:  RMS(Cart)=    0.0057513520 RMS(Int)=    0.0061158191
 Iter   2:  RMS(Cart)=    0.0003199212 RMS(Int)=    0.0003450997
 Iter   3:  RMS(Cart)=    0.0000498646 RMS(Int)=    0.0000491270
 Iter   4:  RMS(Cart)=    0.0000030736 RMS(Int)=    0.0000035896
 Iter   5:  RMS(Cart)=    0.0000004572 RMS(Int)=    0.0000004105
 Iter   6:  RMS(Cart)=    0.0000000307 RMS(Int)=    0.0000000375
done
Storing new coordinates                 .... done

                                .--------------------.
          ----------------------|Geometry convergence|-------------------------
          Item                value                   Tolerance       Converged
          ---------------------------------------------------------------------
          Energy change      -0.0411669852            0.0000050000      NO
          RMS gradient        0.0316874764            0.0001000000      NO
          MAX gradient        0.0805066836            0.0003000000      NO
          RMS step            0.0774596669            0.0020000000      NO
          MAX step            0.1878201110            0.0040000000      NO
          ........................................................
          Max(Bonds)      0.0166      Max(Angles)   10.76
          Max(Dihed)        0.00      Max(Improp)    0.00
          ---------------------------------------------------------------------

The optimization has not yet converged - more geometry cycles are needed


    ---------------------------------------------------------------------------
                         Redundant Internal Coordinates
                            (Angstroem and degrees)

        Definition                    Value    dE/dq     Step     New-Value  comp.(TS mode)
    ----------------------------------------------------------------------------
     1. B(F   1,As  0)                1.7122 -0.026665 -0.0058    1.7063   
     2. B(F   2,As  0)                1.6955 -0.008393  0.0031    1.6986   
     3. B(F   3,As  0)                1.6955 -0.008393  0.0032    1.6986   
     4. B(F   4,As  0)                1.6958 -0.029666  0.0166    1.7124   
     5. B(F   5,As  0)                1.6958 -0.029666  0.0166    1.7124   
     6. A(F   1,As  0,F   3)          109.80 -0.019601    5.39    115.18          0.60
     7. A(F   2,As  0,F   3)          140.40  0.039202  -10.76    129.64   
     8. A(F   1,As  0,F   4)           80.09 -0.040253    4.37     84.46   
     9. A(F   2,As  0,F   4)           93.34  0.010274   -0.16     93.18          0.27
    10. A(F   3,As  0,F   4)           93.34  0.010274   -0.17     93.17          0.27
    11. A(F   1,As  0,F   5)           80.09 -0.040253    4.37     84.46   
    12. A(F   2,As  0,F   5)           93.34  0.010274   -0.16     93.18          0.27
    13. A(F   3,As  0,F   5)           93.34  0.010274   -0.17     93.17          0.27
    14. A(F   4,As  0,F   5)          160.18 -0.080507    8.74    168.92   
    15. A(F   1,As  0,F   2)          109.80 -0.019601    5.37    115.17          0.60
    ----------------------------------------------------------------------------

         *************************************************************
         *                GEOMETRY OPTIMIZATION CYCLE   3            *
         *************************************************************
---------------------------------
CARTESIAN COORDINATES (ANGSTROEM)
---------------------------------
  As     0.000009    0.186969   -0.000024
  F      0.000133    1.893314   -0.000005
  F      1.536225   -0.537801    0.000034
  F     -1.536172   -0.537889    0.000034
  F     -0.000097    0.357186    1.703922
  F     -0.000097    0.357221   -1.703961

----------------------------
CARTESIAN COORDINATES (A.U.)
----------------------------
  NO LB      ZA    FRAG     MASS         X           Y           Z
   0 As   33.0000    0    74.920    0.000016    0.353321   -0.000045
   1 F     9.0000    0    18.998    0.000251    3.577845   -0.000009
   2 F     9.0000    0    18.998    2.903044   -1.016297    0.000064
   3 F     9.0000    0    18.998   -2.902945   -1.016463    0.000064
   4 F     9.0000    0    18.998   -0.000183    0.674984    3.219946
   5 F     9.0000    0    18.998   -0.000183    0.675050   -3.220019

--------------------------------
INTERNAL COORDINATES (ANGSTROEM)
--------------------------------
 As     0   0   0     0.000000000000     0.00000000     0.00000000
 F      1   0   0     1.706344711698     0.00000000     0.00000000
 F      1   2   0     1.698603398487   115.25328365     0.00000000
 F      1   2   3     1.698608616407   115.26480853   179.99509493
 F      1   2   3     1.712426510844    84.29468858    90.00150901
 F      1   2   3     1.712421151509    84.29477341   269.99358625

---------------------------
INTERNAL COORDINATES (A.U.)
---------------------------
 As     0   0   0     0.000000000000     0.00000000     0.00000000
 F      1   0   0     3.224524195173     0.00000000     0.00000000
 F      1   2   0     3.209895233289   115.25328365     0.00000000
 F      1   2   3     3.209905093729   115.26480853   179.99509493
 F      1   2   3     3.236017129962    84.29468858    90.00150901
 F      1   2   3     3.236007002285    84.29477341   269.99358625

------------------------------------------------------------------------------
                   ___                                                        
                  /   \      - P O W E R E D   B Y -                         
                 /     \                                                     
[...]
  44   0.0000       0.192960         5.2507 
  45   0.0000       0.193056         5.2533 
  46   0.0000       0.236278         6.4295 
  47   0.0000       0.302343         8.2272 
  48   0.0000       0.302494         8.2313 
  49   0.0000       0.316497         8.6123 
  50   0.0000       0.354773         9.6539 
  51   0.0000       0.354852         9.6560 
  52   0.0000       0.465246        12.6600 
  53   0.0000       0.467858        12.7311 
  54   0.0000       0.468085        12.7372 
  55   0.0000       0.495514        13.4836 
  56   0.0000       0.523784        14.2529 
  57   0.0000       0.523853        14.2548 
  58   0.0000       0.544034        14.8039 
  59   0.0000       0.595878        16.2147 
  60   0.0000       0.605977        16.4895 
  61   0.0000       0.606417        16.5015 
  62   0.0000       0.657253        17.8848 
  63   0.0000       0.657725        17.8976 
  64   0.0000       0.665656        18.1134 
  65   0.0000       0.665822        18.1179 
  66   0.0000       0.725124        19.7316 
  67   0.0000       0.872177        23.7332 
  68   0.0000       0.872688        23.7471 
  69   0.0000       0.930347        25.3160 
  70   0.0000       0.930640        25.3240 
  71   0.0000       0.938412        25.5355 
  72   0.0000       1.006623        27.3916 
  73   0.0000       1.035395        28.1745 
  74   0.0000       1.035658        28.1817 
  75   0.0000       1.037736        28.2382 
  76   0.0000       1.051791        28.6207 
  77   0.0000       1.141571        31.0637 
  78   0.0000       1.141884        31.0722 
  79   0.0000       1.146163        31.1887 
  80   0.0000       1.146327        31.1931 
  81   0.0000       1.198909        32.6240 
  82   0.0000       1.402526        38.1647 
  83   0.0000       1.566878        42.6369 
  84   0.0000       1.809240        49.2319 
  85   0.0000       1.840696        50.0879 
  86   0.0000       1.840795        50.0906 
  87   0.0000       1.842385        50.1338 
  88   0.0000       1.842623        50.1403 
  89   0.0000       1.880481        51.1705 
  90   0.0000       1.880858        51.1807 
  91   0.0000       1.905975        51.8642 
  92   0.0000       1.906533        51.8794 
  93   0.0000       2.059625        56.0452 
  94   0.0000       2.076797        56.5125 
  95   0.0000       2.077274        56.5255 
  96   0.0000       2.137420        58.1622 
  97   0.0000       2.145819        58.3907 
  98   0.0000       2.146938        58.4212 
  99   0.0000       2.243317        61.0438 
 100   0.0000       2.263264        61.5865 
 101   0.0000       2.263491        61.5927 
 102   0.0000       2.371012        64.5185 
 103   0.0000       2.380474        64.7760 
 104   0.0000       2.380762        64.7838 
 105   0.0000       2.488585        67.7178 
 106   0.0000       2.524258        68.6886 
 107   0.0000       2.524480        68.6946 
 108   0.0000       2.560869        69.6848 
 109   0.0000       2.563942        69.7684 
 110   0.0000       2.564268        69.7773 
 111   0.0000       2.673491        72.7494 
 112   0.0000       2.850584        77.5683 
 113   0.0000       2.850749        77.5728 
 114   0.0000       2.945659        80.1554 
 115   0.0000       2.946509        80.1786 
 116   0.0000       3.092307        84.1459 
 117   0.0000       3.092361        84.1474 
 118   0.0000       3.136445        85.3470 
 119   0.0000       3.186544        86.7103 
 120   0.0000       3.190278        86.8119 
 121   0.0000       3.190508        86.8181 
 122   0.0000       3.226819        87.8062 
 123   0.0000       3.226868        87.8076 
 124   0.0000       3.243346        88.2559 
 125   0.0000       3.298499        89.7567 
 126   0.0000       3.477742        94.6342 
 127   0.0000       3.478647        94.6588 
 128   0.0000       3.691173       100.4419 
 129   0.0000       3.709868       100.9506 
 130   0.0000       3.714466       101.0758 
 131   0.0000       3.714994       101.0901 
 132   0.0000       3.989576       108.5619 
 133   0.0000       4.067155       110.6729 
 134   0.0000       4.069869       110.7468 
 135   0.0000       4.744320       129.0995 
 136   0.0000       4.830035       131.4319 
 137   0.0000       5.988206       162.9474 
 138   0.0000       6.635432       180.5593 
 139   0.0000       6.635669       180.5657 
 140   0.0000       6.640483       180.6967 
 141   0.0000       6.645100       180.8224 
 142   0.0000       6.645255       180.8266 
 143   0.0000       6.654457       181.0770 
 144   0.0000       6.654654       181.0824 
 145   0.0000       6.670090       181.5024 
 146   0.0000       6.670191       181.5051 
 147   0.0000       6.670858       181.5233 
 148   0.0000       6.671508       181.5410 
 149   0.0000       6.672144       181.5583 
 150   0.0000       6.672334       181.5634 
 151   0.0000       6.680242       181.7786 
 152   0.0000       6.680412       181.7833 
 153   0.0000       6.685469       181.9209 
 154   0.0000       6.693984       182.1526 
 155   0.0000       6.694050       182.1544 
 156   0.0000       6.697994       182.2617 
 157   0.0000       6.702270       182.3780 
 158   0.0000       6.705098       182.4550 
 159   0.0000       6.708764       182.5547 
 160   0.0000       6.708975       182.5605 
 161   0.0000       6.741641       183.4494 
 162   0.0000       6.741817       183.4542 
 163   0.0000       6.757434       183.8791 
 164   0.0000       6.757638       183.8847 
 165   0.0000       6.810077       185.3116 
 166   0.0000       6.816767       185.4937 
 167   0.0000       6.835861       186.0132 
 168   0.0000       6.835883       186.0138 
 169   0.0000       6.864439       186.7909 
 170   0.0000       6.864764       186.7997 
 171   0.0000       6.901629       187.8029 
 172   0.0000       7.062263       192.1739 
 173   0.0000       8.023082       218.3192 
 174   0.0000       8.048493       219.0106 
 175   0.0000       8.048795       219.0188 
 176   0.0000       8.054215       219.1663 
 177   0.0000       8.054407       219.1715 
 178   0.0000       8.099620       220.4019 
 179   0.0000       8.100056       220.4137 
 180   0.0000       8.119138       220.9330 
 181   0.0000       8.119611       220.9458 
 182   0.0000       8.175322       222.4618 
 183   0.0000       8.175619       222.4699 
 184   0.0000       8.189541       222.8488 
 185   0.0000       8.255713       224.6494 
 186   0.0000       8.302356       225.9186 
 187   0.0000       8.303270       225.9435 
 188   0.0000       8.411217       228.8809 
 189   0.0000       8.411325       228.8838 
 190   0.0000       8.450290       229.9441 
 191   0.0000       8.545351       232.5308 
 192   0.0000       8.545688       232.5400 
 193   0.0000       8.651191       235.4109 
 194   0.0000       8.651935       235.4311 
 195   0.0000       8.672706       235.9963 
 196   0.0000       8.868614       241.3272 
 197   0.0000       8.986418       244.5329 
 198   0.0000      56.387694      1534.3872 
 199   0.0000      56.388149      1534.3995 
 200   0.0000      56.536990      1538.4497 
 201   0.0000      56.555694      1538.9587 
 202   0.0000      56.835300      1546.5671 

                    ********************************
                    * MULLIKEN POPULATION ANALYSIS *
                    ********************************

-----------------------
MULLIKEN ATOMIC CHARGES
-----------------------
   0 As:    1.308387
   1 F :   -0.242557
   2 F :   -0.242438
   3 F :   -0.242652
   4 F :   -0.290370
   5 F :   -0.290370
Sum of atomic charges:   -0.0000000

--------------------------------
MULLIKEN REDUCED ORBITAL CHARGES
--------------------------------
  0 Ass       :     7.060623  s :     7.060623
      pz      :     4.591321  p :    13.712211
      px      :     4.560428
      py      :     4.560462
      dz2     :     2.160922  d :    10.695197
      dxz     :     2.134814
      dyz     :     2.134845
      dx2y2   :     2.132307
      dxy     :     2.132309
      f0      :     0.056369  f :     0.223582
      f+1     :     0.039470
      f-1     :     0.039473
      f+2     :     0.012702
      f-2     :     0.012712
      f+3     :     0.039788
      f-3     :     0.023068
  1 F s       :     3.923367  s :     3.923367
      pz      :     1.912049  p :     5.308695
      px      :     1.867953
      py      :     1.528693
      dz2     :     0.001396  d :     0.010191
      dxz     :     0.000043
      dyz     :     0.002333
      dx2y2   :     0.003662
      dxy     :     0.002758
      f0      :     0.000032  f :     0.000304
      f+1     :     0.000007
      f-1     :     0.000066
      f+2     :     0.000043
      f-2     :     0.000002
      f+3     :     0.000071
      f-3     :     0.000084
  2 F s       :     3.923325  s :     3.923325
      pz      :     1.911916  p :     5.308608
      px      :     1.613288
      py      :     1.783405
      dz2     :     0.001396  d :     0.010201
      dxz     :     0.001764
      dyz     :     0.000615
      dx2y2   :     0.002988
      dxy     :     0.003438
      f0      :     0.000032  f :     0.000304
      f+1     :     0.000051
      f-1     :     0.000022
      f+2     :     0.000012
      f-2     :     0.000033
      f+3     :     0.000071
      f-3     :     0.000084
  3 F s       :     3.923395  s :     3.923395
      pz      :     1.912141  p :     5.308769
      px      :     1.613803
      py      :     1.782824
      dz2     :     0.001395  d :     0.010185
      dxz     :     0.001757
      dyz     :     0.000617
      dx2y2   :     0.002981
      dxy     :     0.003435
      f0      :     0.000032  f :     0.000304
      f+1     :     0.000051
      f-1     :     0.000022
      f+2     :     0.000012
      f-2     :     0.000033
      f+3     :     0.000071
      f-3     :     0.000084
  4 F s       :     3.935830  s :     3.935830
      pz      :     1.550477  p :     5.345163
      px      :     1.897337
      py      :     1.897348
      dz2     :     0.004453  d :     0.009107
      dxz     :     0.002233
      dyz     :     0.002233
      dx2y2   :     0.000094
      dxy     :     0.000094
      f0      :     0.000132  f :     0.000270
      f+1     :     0.000066
      f-1     :     0.000066
      f+2     :     0.000003
      f-2     :     0.000003
      f+3     :     0.000000
      f-3     :     0.000000
  5 F s       :     3.935830  s :     3.935830
      pz      :     1.550477  p :     5.345163
      px      :     1.897337
      py      :     1.897348
      dz2     :     0.004453  d :     0.009107
      dxz     :     0.002233
      dyz     :     0.002233
      dx2y2   :     0.000094
      dxy     :     0.000094
      f0      :     0.000132  f :     0.000270
      f+1     :     0.000066
      f-1     :     0.000066
      f+2     :     0.000003
      f-2     :     0.000003
      f+3     :     0.000000
      f-3     :     0.000000


                     *******************************
                     * LOEWDIN POPULATION ANALYSIS *
                     *******************************

----------------------
LOEWDIN ATOMIC CHARGES
----------------------
   0 As:    0.447647
   1 F :   -0.076108
   2 F :   -0.075819
   3 F :   -0.076277
   4 F :   -0.109722
   5 F :   -0.109722

-------------------------------
LOEWDIN REDUCED ORBITAL CHARGES
-------------------------------
  0 Ass       :     6.772095  s :     6.772095
      pz      :     4.596139  p :    13.744306
      px      :     4.574073
      py      :     4.574094
      dz2     :     2.466433  d :    11.498155
      dxz     :     2.222934
      dyz     :     2.222939
      dx2y2   :     2.292899
      dxy     :     2.292950
      f0      :     0.139840  f :     0.537797
      f+1     :     0.092651
      f-1     :     0.092657
      f+2     :     0.026279
      f-2     :     0.026305
      f+3     :     0.080770
      f-3     :     0.079296
  1 F s       :     3.751445  s :     3.751445
      pz      :     1.870531  p :     5.307046
      px      :     1.823191
      py      :     1.613324
      dz2     :     0.003210  d :     0.017088
      dxz     :     0.000033
      dyz     :     0.002474
      dx2y2   :     0.008944
      dxy     :     0.002427
      f0      :     0.000036  f :     0.000528
      f+1     :     0.000006
      f-1     :     0.000138
      f+2     :     0.000056
      f-2     :     0.000002
      f+3     :     0.000073
      f-3     :     0.000216
  2 F s       :     3.751292  s :     3.751292
      pz      :     1.870338  p :     5.306900
      px      :     1.665673
      py      :     1.770889
      dz2     :     0.003210  d :     0.017098
      dxz     :     0.001867
      dyz     :     0.000643
      dx2y2   :     0.004067
      dxy     :     0.007311
      f0      :     0.000036  f :     0.000529
      f+1     :     0.000105
      f-1     :     0.000039
      f+2     :     0.000015
      f-2     :     0.000042
      f+3     :     0.000073
      f-3     :     0.000217
  3 F s       :     3.751515  s :     3.751515
      pz      :     1.870643  p :     5.307149
      px      :     1.665977
      py      :     1.770529
      dz2     :     0.003209  d :     0.017085
      dxz     :     0.001861
      dyz     :     0.000645
      dx2y2   :     0.004045
      dxy     :     0.007324
      f0      :     0.000036  f :     0.000528
      f+1     :     0.000105
      f-1     :     0.000039
      f+2     :     0.000015
      f-2     :     0.000043
      f+3     :     0.000073
      f-3     :     0.000216
  4 F s       :     3.758578  s :     3.758578
      pz      :     1.617047  p :     5.334547
      px      :     1.858739
      py      :     1.858761
      dz2     :     0.011245  d :     0.016086
      dxz     :     0.002293
      dyz     :     0.002293
      dx2y2   :     0.000128
      dxy     :     0.000128
      f0      :     0.000331  f :     0.000510
      f+1     :     0.000085
      f-1     :     0.000085
      f+2     :     0.000004
      f-2     :     0.000004
      f+3     :     0.000001
      f-3     :     0.000001
  5 F s       :     3.758579  s :     3.758579
      pz      :     1.617047  p :     5.334547
      px      :     1.858739
      py      :     1.858761
      dz2     :     0.011245  d :     0.016086
      dxz     :     0.002293
      dyz     :     0.002293
      dx2y2   :     0.000128
      dxy     :     0.000128
      f0      :     0.000331  f :     0.000510
      f+1     :     0.000085
      f-1     :     0.000085
      f+2     :     0.000004
      f-2     :     0.000004
      f+3     :     0.000001
      f-3     :     0.000001


                      *****************************
                      * MAYER POPULATION ANALYSIS *
                      *****************************

  NA   - Mulliken gross atomic population
  ZA   - Total nuclear charge
  QA   - Mulliken gross atomic charge
  VA   - Mayer's total valence
  BVA  - Mayer's bonded valence
  FA   - Mayer's free valence

  ATOM       NA         ZA         QA         VA         BVA        FA
  0 As    31.6916    33.0000     1.3084     5.2484     5.2484    -0.0000
  1 F      9.2426     9.0000    -0.2426     1.1460     1.1460    -0.0000
  2 F      9.2424     9.0000    -0.2424     1.1461     1.1461    -0.0000
  3 F      9.2427     9.0000    -0.2427     1.1457     1.1457    -0.0000
  4 F      9.2904     9.0000    -0.2904     1.1197     1.1197    -0.0000
  5 F      9.2904     9.0000    -0.2904     1.1197     1.1197     0.0000

  Mayer bond orders larger than 0.100000
B(  0-As,  1-F ) :   1.0564 B(  0-As,  2-F ) :   1.0567 B(  0-As,  3-F ) :   1.0561 
B(  0-As,  4-F ) :   1.0396 B(  0-As,  5-F ) :   1.0396 

-------
TIMINGS
-------

Total SCF time: 0 days 0 hours 0 min 4 sec 

Total time                  ....       4.872 sec
Sum of individual times     ....       4.572 sec  ( 93.8%)

Fock matrix formation       ....       3.978 sec  ( 81.7%)
  Split-RI-J                ....       1.194 sec  ( 30.0% of F)
  XC integration            ....       2.763 sec  ( 69.5% of F)
    Basis function eval.    ....       0.914 sec  ( 33.1% of XC)
    Density eval.           ....       0.784 sec  ( 28.4% of XC)
    XC-Functional eval.     ....       0.142 sec  (  5.1% of XC)
    XC-Potential eval.      ....       0.682 sec  ( 24.7% of XC)
Diagonalization             ....       0.008 sec  (  0.2%)
Density matrix formation    ....       0.007 sec  (  0.1%)
Population analysis         ....       0.039 sec  (  0.8%)
Initial guess               ....       0.007 sec  (  0.1%)
Orbital Transformation      ....       0.000 sec  (  0.0%)
Orbital Orthonormalization  ....       0.004 sec  (  0.1%)
DIIS solution               ....       0.003 sec  (  0.1%)
SOSCF solution              ....       0.044 sec  (  0.9%)
Grid generation             ....       0.486 sec  ( 10.0%)

Maximum memory used throughout the entire SCF-calculation: 77.0 MB

-------------------------   --------------------
FINAL SINGLE POINT ENERGY     -2734.599257678281
-------------------------   --------------------

                                *** OPTIMIZATION RUN DONE ***

                            ***************************************
                            *     ORCA property calculations      *
                            ***************************************

                                    ---------------------
                                    Active property flags
                                    ---------------------
   (+) Dipole Moment


------------------------------------------------------------------------------
                       ORCA ELECTRIC PROPERTIES CALCULATION
------------------------------------------------------------------------------

Dipole Moment Calculation                       ... on
Quadrupole Moment Calculation                   ... off
Polarizability Calculation                      ... off
GBWName                                         ... AsF5_ts_opt.gbw
Electron density                                ... AsF5_ts_opt.scfp
The origin for moment calculation is the CENTER OF MASS  = (-0.000044,  0.541364 -0.000000)

-------------
DIPOLE MOMENT
-------------
                                X             Y             Z
Electronic contribution:      0.00033      -0.00060      -0.00000
Nuclear contribution   :      0.00022       0.00022       0.00000
                        -----------------------------------------
Total Dipole Moment    :      0.00055      -0.00038      -0.00000
                        -----------------------------------------
Magnitude (a.u.)       :      0.00067
Magnitude (Debye)      :      0.00172



--------------------
Rotational spectrum 
--------------------
 
Rotational constants in cm-1:     0.101073     0.085544     0.085426 
Rotational constants in MHz :  3030.093227  2564.551688  2561.004946 

 Dipole components along the rotational axes: 
x,y,z [a.u.] :    -0.000001     0.000088    -0.000669 
x,y,z [Debye]:    -0.000001     0.000223    -0.001701 

 

Timings for individual modules:

Sum of individual times         ...      133.450 sec (=   2.224 min)
GTO integral calculation        ...        3.622 sec (=   0.060 min)   2.7 %
SCF iterations                  ...       88.499 sec (=   1.475 min)  66.3 %
SCF Gradient evaluation         ...       40.889 sec (=   0.681 min)  30.6 %
Geometry relaxation             ...        0.440 sec (=   0.007 min)   0.3 %
                             ****ORCA TERMINATED NORMALLY****
TOTAL RUN TIME: 0 days 0 hours 2 minutes 14 seconds 400 msec
