
                                 *****************
                                 * O   R   C   A *
                                 *****************

                                            #,                                       
                                            ###                                      
                                            ####                                     
                                            #####                                    
                                            ######                                   
                                           ########,                                 
                                     ,,################,,,,,                         
                               ,,#################################,,                 
                          ,,##########################################,,             
                       ,#########################################, ''#####,          
                    ,#############################################,,   '####,        
                  ,##################################################,,,,####,       
                ,###########''''           ''''###############################       
              ,#####''   ,,,,##########,,,,          '''####'''          '####       
            ,##' ,,,,###########################,,,                        '##       
           ' ,,###''''                  '''############,,,                           
         ,,##''                                '''############,,,,        ,,,,,,###''
      ,#''                                            '''#######################'''  
     '                                                          ''''####''''         
             ,#######,   #######,   ,#######,      ##                                
            ,#'     '#,  ##    ##  ,#'     '#,    #''#        ######   ,####,        
            ##       ##  ##   ,#'  ##            #'  '#       #        #'  '#        
            ##       ##  #######   ##           ,######,      #####,   #    #        
            '#,     ,#'  ##    ##  '#,     ,#' ,#      #,         ##   #,  ,#        
             '#######'   ##     ##  '#######'  #'      '#     #####' # '####'        



                  #######################################################
                  #                        -***-                        #
                  #          Department of theory and spectroscopy      #
                  #    Directorship and core code : Frank Neese         #
                  #        Max Planck Institute fuer Kohlenforschung    #
                  #                Kaiser Wilhelm Platz 1               #
                  #                 D-45470 Muelheim/Ruhr               #
                  #                      Germany                        #
                  #                                                     #
                  #                  All rights reserved                #
                  #                        -***-                        #
                  #######################################################



                         Program Version 5.0.4 -  RELEASE  -

 With contributions from (in alphabetic order):
   Daniel Aravena         : Magnetic Suceptibility
   Michael Atanasov       : Ab Initio Ligand Field Theory (pilot matlab implementation)
   Alexander A. Auer      : GIAO ZORA, VPT2 properties, NMR spectrum
   Ute Becker             : Parallelization
   Giovanni Bistoni       : ED, misc. LED, open-shell LED, HFLD
   Martin Brehm           : Molecular dynamics
   Dmytro Bykov           : SCF Hessian
   Vijay G. Chilkuri      : MRCI spin determinant printing, contributions to CSF-ICE
   Dipayan Datta          : RHF DLPNO-CCSD density
   Achintya Kumar Dutta   : EOM-CC, STEOM-CC
   Dmitry Ganyushin       : Spin-Orbit,Spin-Spin,Magnetic field MRCI
   Miquel Garcia          : C-PCM and meta-GGA Hessian, CC/C-PCM, Gaussian charge scheme
   Yang Guo               : DLPNO-NEVPT2, F12-NEVPT2, CIM, IAO-localization
   Andreas Hansen         : Spin unrestricted coupled pair/coupled cluster methods
   Benjamin Helmich-Paris : MC-RPA, TRAH-SCF, COSX integrals
   Lee Huntington         : MR-EOM, pCC
   Robert Izsak           : Overlap fitted RIJCOSX, COSX-SCS-MP3, EOM
   Marcus Kettner         : VPT2
   Christian Kollmar      : KDIIS, OOCD, Brueckner-CCSD(T), CCSD density, CASPT2, CASPT2-K
   Simone Kossmann        : Meta GGA functionals, TD-DFT gradient, OOMP2, MP2 Hessian
   Martin Krupicka        : Initial AUTO-CI
   Lucas Lang             : DCDCAS
   Marvin Lechner         : AUTO-CI (C++ implementation), FIC-MRCC
   Dagmar Lenk            : GEPOL surface, SMD
   Dimitrios Liakos       : Extrapolation schemes; Compound Job, initial MDCI parallelization
   Dimitrios Manganas     : Further ROCIS development; embedding schemes
   Dimitrios Pantazis     : SARC Basis sets
   Anastasios Papadopoulos: AUTO-CI, single reference methods and gradients
   Taras Petrenko         : DFT Hessian,TD-DFT gradient, ASA, ECA, R-Raman, ABS, FL, XAS/XES, NRVS
   Peter Pinski           : DLPNO-MP2, DLPNO-MP2 Gradient
   Christoph Reimann      : Effective Core Potentials
   Marius Retegan         : Local ZFS, SOC
   Christoph Riplinger    : Optimizer, TS searches, QM/MM, DLPNO-CCSD(T), (RO)-DLPNO pert. Triples
   Tobias Risthaus        : Range-separated hybrids, TD-DFT gradient, RPA, STAB
   Michael Roemelt        : Original ROCIS implementation
   Masaaki Saitow         : Open-shell DLPNO-CCSD energy and density
   Barbara Sandhoefer     : DKH picture change effects
   Avijit Sen             : IP-ROCIS
   Kantharuban Sivalingam : CASSCF convergence, NEVPT2, FIC-MRCI
   Bernardo de Souza      : ESD, SOC TD-DFT
   Georgi Stoychev        : AutoAux, RI-MP2 NMR, DLPNO-MP2 response
   Willem Van den Heuvel  : Paramagnetic NMR
   Boris Wezisla          : Elementary symmetry handling
   Frank Wennmohs         : Technical directorship


 We gratefully acknowledge several colleagues who have allowed us to
 interface, adapt or use parts of their codes:
   Stefan Grimme, W. Hujo, H. Kruse, P. Pracht,  : VdW corrections, initial TS optimization,
                  C. Bannwarth, S. Ehlert          DFT functionals, gCP, sTDA/sTD-DF
   Ed Valeev, F. Pavosevic, A. Kumar             : LibInt (2-el integral package), F12 methods
   Garnet Chan, S. Sharma, J. Yang, R. Olivares  : DMRG
   Ulf Ekstrom                                   : XCFun DFT Library
   Mihaly Kallay                                 : mrcc  (arbitrary order and MRCC methods)
   Jiri Pittner, Ondrej Demel                    : Mk-CCSD
   Frank Weinhold                                : gennbo (NPA and NBO analysis)
   Christopher J. Cramer and Donald G. Truhlar   : smd solvation model
   Lars Goerigk                                  : TD-DFT with DH, B97 family of functionals
   V. Asgeirsson, H. Jonsson                     : NEB implementation
   FAccTs GmbH                                   : IRC, NEB, NEB-TS, DLPNO-Multilevel, CI-OPT
                                                   MM, QMMM, 2- and 3-layer-ONIOM, Crystal-QMMM,
                                                   LR-CPCM, SF, NACMEs, symmetry and pop. for TD-DFT,
                                                   nearIR, NL-DFT gradient (VV10), updates on ESD,
                                                   ML-optimized integration grids
   S Lehtola, MJT Oliveira, MAL Marques          : LibXC Library
   Liviu Ungur et al                             : ANISO software


 Your calculation uses the libint2 library for the computation of 2-el integrals
 For citations please refer to: http://libint.valeyev.net

 Your ORCA version has been built with support for libXC version: 5.1.0
 For citations please refer to: https://tddft.org/programs/libxc/

 This ORCA versions uses:
   CBLAS   interface :  Fast vector & matrix operations
   LAPACKE interface :  Fast linear algebra routines
   Shared memory     :  Shared parallel matrices


================================================================================

----- Orbital basis set information -----
Your calculation utilizes the basis: def2-TZVP
   F. Weigend and R. Ahlrichs, Phys. Chem. Chem. Phys. 7, 3297 (2005).

----- AuxJ basis set information -----
Your calculation utilizes the auxiliary basis: def2/J
   F. Weigend, Phys. Chem. Chem. Phys. 8, 1057 (2006).

================================================================================
                                        WARNINGS
                       Please study these warnings very carefully!
================================================================================


WARNING: Geometry Optimization
  ===> : Switching off AutoStart
         For restart on a previous wavefunction, please use MOREAD

INFO   : the flag for use of the SHARK integral package has been found!

================================================================================
                                       INPUT FILE
================================================================================
NAME = PCl5_opt.inp
|  1> ! PBE def2-TZVP Opt
|  2> 
|  3> * xyz 0 1
|  4> P  0.0000  0.0000  0.0000  # Phosphorus (P)
|  5> Cl  0.0000  2.0200  0.0000  # Equatorial Chlorine (Cl1) 
|  6> Cl  1.7494 -1.0100  0.0000  # Equatorial Chlorine (Cl2)
|  7> Cl -1.7494 -1.0100  0.0000  # Equatorial Chlorine (Cl3)
|  8> Cl  0.0000  0.0000  2.1400  # Axial Chlorine (Cl4)
|  9> Cl  0.0000  0.0000 -2.1400  # Axial Chlorine (Cl5)
| 10> *
| 11> 
| 12>                          ****END OF INPUT****
================================================================================

                       *****************************
                       * Geometry Optimization Run *
                       *****************************

Geometry optimization settings:
Update method            Update   .... BFGS
Choice of coordinates    CoordSys .... Z-matrix Internals
Initial Hessian          InHess   .... Almoef's Model

Convergence Tolerances:
Energy Change            TolE     ....  5.0000e-06 Eh
Max. Gradient            TolMAXG  ....  3.0000e-04 Eh/bohr
RMS Gradient             TolRMSG  ....  1.0000e-04 Eh/bohr
Max. Displacement        TolMAXD  ....  4.0000e-03 bohr
RMS Displacement         TolRMSD  ....  2.0000e-03 bohr
Strict Convergence                ....  False
------------------------------------------------------------------------------
                        ORCA OPTIMIZATION COORDINATE SETUP
------------------------------------------------------------------------------

The optimization will be done in new redundant internal coordinates
Making redundant internal coordinates   ...  (new redundants) done
Evaluating the initial hessian          ...  (Almloef) done
Evaluating the coordinates              ...  done
Calculating the B-matrix                .... done
Calculating the G-matrix                .... done
Diagonalizing the G-matrix              .... done
The first mode is                       ....    2
The number of degrees of freedom        ....   12

    -----------------------------------------------------------------
                    Redundant Internal Coordinates


    -----------------------------------------------------------------
         Definition                    Initial Value    Approx d2E/dq
    -----------------------------------------------------------------
      1. B(Cl  1,P   0)                  2.0200         0.465697   
      2. B(Cl  2,P   0)                  2.0200         0.465655   
      3. B(Cl  3,P   0)                  2.0200         0.465655   
      4. B(Cl  4,P   0)                  2.1400         0.299676   
      5. B(Cl  5,P   0)                  2.1400         0.299676   
      6. A(Cl  1,P   0,Cl  3)          119.9996         0.480775   
      7. A(Cl  2,P   0,Cl  3)          120.0008         0.480767   
      8. A(Cl  1,P   0,Cl  4)           90.0000         0.443579   
      9. A(Cl  2,P   0,Cl  4)           90.0000         0.443571   
     10. A(Cl  3,P   0,Cl  4)           90.0000         0.443571   
     11. A(Cl  1,P   0,Cl  5)           90.0000         0.443579   
     12. A(Cl  2,P   0,Cl  5)           90.0000         0.443571   
     13. A(Cl  3,P   0,Cl  5)           90.0000         0.443571   
     14. A(Cl  1,P   0,Cl  2)          119.9996         0.480775   
    -----------------------------------------------------------------

Number of atoms                         .... 6
Number of degrees of freedom            .... 14

         *************************************************************
         *                GEOMETRY OPTIMIZATION CYCLE   1            *
         *************************************************************
---------------------------------
CARTESIAN COORDINATES (ANGSTROEM)
---------------------------------
  P      0.000000    0.000000    0.000000
  Cl     0.000000    2.020000    0.000000
  Cl     1.749400   -1.010000    0.000000
  Cl    -1.749400   -1.010000    0.000000
  Cl     0.000000    0.000000    2.140000
  Cl     0.000000    0.000000   -2.140000

----------------------------
CARTESIAN COORDINATES (A.U.)
----------------------------
  NO LB      ZA    FRAG     MASS         X           Y           Z
   0 P    15.0000    0    30.974    0.000000    0.000000    0.000000
   1 Cl   17.0000    0    35.453    0.000000    3.817247    0.000000
   2 Cl   17.0000    0    35.453    3.305887   -1.908623    0.000000
   3 Cl   17.0000    0    35.453   -3.305887   -1.908623    0.000000
   4 Cl   17.0000    0    35.453    0.000000    0.000000    4.044014
   5 Cl   17.0000    0    35.453    0.000000    0.000000   -4.044014

--------------------------------
INTERNAL COORDINATES (ANGSTROEM)
--------------------------------
 P      0   0   0     0.000000000000     0.00000000     0.00000000
 Cl     1   0   0     2.020000000000     0.00000000     0.00000000
 Cl     1   2   0     2.020024841431   119.99959320     0.00000000
 Cl     1   2   3     2.020024841431   119.99959320   180.00000121
 Cl     1   2   3     2.140000000000    90.00000000    90.00000000
 Cl     1   2   3     2.140000000000    90.00000000   270.00000000

---------------------------
INTERNAL COORDINATES (A.U.)
---------------------------
 P      0   0   0     0.000000000000     0.00000000     0.00000000
 Cl     1   0   0     3.817246790521     0.00000000     0.00000000
 Cl     1   2   0     3.817293734023   119.99959320     0.00000000
 Cl     1   2   3     3.817293734023   119.99959320   180.00000121
 Cl     1   2   3     4.044013926591    90.00000000    90.00000000
 Cl     1   2   3     4.044013926591    90.00000000   270.00000000

---------------------
BASIS SET INFORMATION
---------------------
There are 2 groups of distinct atoms

 Group   1 Type P   : 14s9p3d1f contracted to 5s5p2d1f pattern {73211/51111/21/1}
 Group   2 Type Cl  : 14s9p3d1f contracted to 5s5p2d1f pattern {73211/51111/21/1}

Atom   0P    basis set group =>   1
Atom   1Cl   basis set group =>   2
Atom   2Cl   basis set group =>   2
Atom   3Cl   basis set group =>   2
Atom   4Cl   basis set group =>   2
Atom   5Cl   basis set group =>   2
---------------------------------
AUXILIARY/J BASIS SET INFORMATION
---------------------------------
There are 2 groups of distinct atoms

 Group   1 Type P   : 14s5p5d2f1g contracted to 8s4p3d1f1g pattern {71111111/2111/311/2/1}
 Group   2 Type Cl  : 14s5p5d2f1g contracted to 8s4p3d1f1g pattern {71111111/2111/311/2/1}

Atom   0P    basis set group =>   1
Atom   1Cl   basis set group =>   2
Atom   2Cl   basis set group =>   2
Atom   3Cl   basis set group =>   2
Atom   4Cl   basis set group =>   2
Atom   5Cl   basis set group =>   2
------------------------------------------------------------------------------
                           ORCA GTO INTEGRAL CALCULATION
                           -- RI-GTO INTEGRALS CHOSEN --
------------------------------------------------------------------------------
------------------------------------------------------------------------------
                   ___                                                        
                  /   \      - P O W E R E D   B Y -                         
                 /     \                                                     
                 |  |  |   _    _      __       _____    __    __             
                 |  |  |  | |  | |    /  \     |  _  \  |  |  /  |          
                  \  \/   | |  | |   /    \    | | | |  |  | /  /          
                 / \  \   | |__| |  /  /\  \   | |_| |  |  |/  /          
                |  |  |   |  __  | /  /__\  \  |    /   |      \           
                |  |  |   | |  | | |   __   |  |    \   |  |\   \          
                \     /   | |  | | |  |  |  |  | |\  \  |  | \   \       
                 \___/    |_|  |_| |__|  |__|  |_| \__\ |__|  \__/        
                                                                              
                      - O R C A' S   B I G   F R I E N D -                    
                                      &                                       
                       - I N T E G R A L  F E E D E R -                       
                                                                              
 v1 FN, 2020, v2 2021                                                         
------------------------------------------------------------------------------


Reading SHARK input file PCl5_opt.SHARKINP.tmp ... ok
----------------------
SHARK INTEGRAL PACKAGE
----------------------

Number of atoms                             ...      6
Number of basis functions                   ...    222
Number of shells                            ...     78
Maximum angular momentum                    ...      3
Integral batch strategy                     ... SHARK/LIBINT Hybrid
RI-J (if used) integral strategy            ... SPLIT-RIJ (Revised 2003 algorithm where possible)
Printlevel                                  ...      1
Contraction scheme used                     ... SEGMENTED contraction
Coulomb Range Separation                    ... NOT USED
Exchange Range Separation                   ... NOT USED
Finite Nucleus Model                        ... NOT USED
Auxiliary Coulomb fitting basis             ... AVAILABLE
   # of basis functions in Aux-J            ...    306
   # of shells in Aux-J                     ...    102
   Maximum angular momentum in Aux-J        ...      4
Auxiliary J/K fitting basis                 ... NOT available
Auxiliary Correlation fitting basis         ... NOT available
Auxiliary 'external' fitting basis          ... NOT available
Integral threshold                          ...     2.500000e-11
Primitive cut-off                           ...     2.500000e-12
Primitive pair pre-selection threshold      ...     2.500000e-12

Calculating pre-screening integrals         ... done (  0.1 sec) Dimension = 78
Organizing shell pair data                  ... done (  0.1 sec)
Shell pair information
Total number of shell pairs                 ...      3081
Shell pairs after pre-screening             ...      2651
Total number of primitive shell pairs       ...     13419
Primitive shell pairs kept                  ...      7699
          la=0 lb=0:    344 shell pairs
          la=1 lb=0:    711 shell pairs
          la=1 lb=1:    403 shell pairs
          la=2 lb=0:    330 shell pairs
          la=2 lb=1:    342 shell pairs
          la=2 lb=2:     78 shell pairs
          la=3 lb=0:    174 shell pairs
          la=3 lb=1:    176 shell pairs
          la=3 lb=2:     72 shell pairs
          la=3 lb=3:     21 shell pairs

Calculating one electron integrals          ... done (  0.0 sec)
Calculating RI/J V-Matrix + Cholesky decomp.... done (  0.0 sec)
Calculating Nuclear repulsion               ... done (  0.0 sec) ENN=    805.189200654017 Eh

SHARK setup successfully completed in   0.3 seconds

Maximum memory used throughout the entire GTOINT-calculation: 74.3 MB
-------------------------------------------------------------------------------
                                 ORCA SCF
-------------------------------------------------------------------------------

------------
SCF SETTINGS
------------
Hamiltonian:
 Density Functional     Method          .... DFT(GTOs)
 Exchange Functional    Exchange        .... PBE
   PBE kappa parameter   XKappa         ....  0.804000
   PBE mue parameter    XMuePBE         ....  0.219520
 Correlation Functional Correlation     .... PBE
   PBE beta parameter  CBetaPBE         ....  0.066725
 LDA part of GGA corr.  LDAOpt          .... PW91-LDA
 Gradients option       PostSCFGGA      .... off
   Density functional embedding theory  .... OFF
   NL short-range parameter             ....  6.400000
 RI-approximation to the Coulomb term is turned on
   Number of AuxJ basis functions       .... 306


General Settings:
 Integral files         IntName         .... PCl5_opt
 Hartree-Fock type      HFTyp           .... RHF
 Total Charge           Charge          ....    0
 Multiplicity           Mult            ....    1
 Number of Electrons    NEL             ....  100
 Basis Dimension        Dim             ....  222
 Nuclear Repulsion      ENuc            ....    805.1892006540 Eh

Convergence Acceleration:
 DIIS                   CNVDIIS         .... on
   Start iteration      DIISMaxIt       ....    12
   Startup error        DIISStart       ....  0.200000
   # of expansion vecs  DIISMaxEq       ....     5
   Bias factor          DIISBfac        ....   1.050
   Max. coefficient     DIISMaxC        ....  10.000
 Trust-Rad. Augm. Hess. CNVTRAH         .... auto
   Auto Start mean grad. ratio tolernc. ....  1.125000
   Auto Start start iteration           ....    20
   Auto Start num. interpolation iter.  ....    10
   Max. Number of Micro iterations      ....    16
   Max. Number of Macro iterations      .... Maxiter - #DIIS iter
   Number of Davidson start vectors     ....     2
   Converg. threshold I  (grad. norm)   ....   1.000e-05
   Converg. threshold II (energy diff.) ....   1.000e-08
   Grad. Scal. Fac. for Micro threshold ....   0.100
   Minimum threshold for Micro iter.    ....   0.010
   NR start threshold (gradient norm)   ....   0.001
   Initial trust radius                 ....   0.400
   Minimum AH scaling param. (alpha)    ....   1.000
   Maximum AH scaling param. (alpha)    .... 1000.000
   Orbital update algorithm             .... Taylor
   White noise on init. David. guess    .... on
   Maximum white noise                  ....   0.010
   Quad. conv. algorithm                .... NR
 SOSCF                  CNVSOSCF        .... on
   Start iteration      SOSCFMaxIt      ....   150
   Startup grad/error   SOSCFStart      ....  0.003300
 Level Shifting         CNVShift        .... on
   Level shift para.    LevelShift      ....    0.2500
   Turn off err/grad.   ShiftErr        ....    0.0010
 Zerner damping         CNVZerner       .... off
 Static damping         CNVDamp         .... on
   Fraction old density DampFac         ....    0.7000
   Max. Damping (<1)    DampMax         ....    0.9800
   Min. Damping (>=0)   DampMin         ....    0.0000
   Turn off err/grad.   DampErr         ....    0.1000
 Fernandez-Rico         CNVRico         .... off

SCF Procedure:
 Maximum # iterations   MaxIter         ....   125
 SCF integral mode      SCFMode         .... Direct
   Integral package                     .... SHARK and LIBINT hybrid scheme
 Reset frequency        DirectResetFreq ....    20
 Integral Threshold     Thresh          ....  2.500e-11 Eh
 Primitive CutOff       TCut            ....  2.500e-12 Eh

Convergence Tolerance:
 Convergence Check Mode ConvCheckMode   .... Total+1el-Energy
 Convergence forced     ConvForced      .... 0
 Energy Change          TolE            ....  1.000e-08 Eh
 1-El. energy change                    ....  1.000e-05 Eh
 Orbital Gradient       TolG            ....  1.000e-05
 Orbital Rotation angle TolX            ....  1.000e-05
 DIIS Error             TolErr          ....  5.000e-07


Diagonalization of the overlap matrix:
Smallest eigenvalue                        ... 3.137e-03
Time for diagonalization                   ...    0.007 sec
Threshold for overlap eigenvalues          ... 1.000e-08
Number of eigenvalues below threshold      ... 0
Time for construction of square roots      ...    0.004 sec
Total time needed                          ...    0.012 sec

Time for model grid setup =    0.120 sec

------------------------------
INITIAL GUESS: MODEL POTENTIAL
------------------------------
Loading Hartree-Fock densities                     ... done
Calculating cut-offs                               ... done
Initializing the effective Hamiltonian             ... done
Setting up the integral package (SHARK)            ... done
Starting the Coulomb interaction                   ... done (   0.1 sec)
Reading the grid                                   ... done
Mapping shells                                     ... done
Starting the XC term evaluation                    ... done (   0.2 sec)
  promolecular density results
     # of electrons  =    100.000496591
     EX              =   -159.555357978
     EC              =     -3.956909561
     EX+EC           =   -163.512267539
Transforming the Hamiltonian                       ... done (   0.0 sec)
Diagonalizing the Hamiltonian                      ... done (   0.0 sec)
Back transforming the eigenvectors                 ... done (   0.0 sec)
Now organizing SCF variables                       ... done
                      ------------------
                      INITIAL GUESS DONE (   0.5 sec)
                      ------------------
-------------------
DFT GRID GENERATION
-------------------

General Integration Accuracy     IntAcc      ... 4.388
Radial Grid Type                 RadialGrid  ... OptM3 with GC (2021)
Angular Grid (max. ang.)         AngularGrid ... 4 (Lebedev-302)
Angular grid pruning method      GridPruning ... 4 (adaptive)
Weight generation scheme         WeightScheme... Becke
Basis function cutoff            BFCut       ... 1.0000e-11
Integration weight cutoff        WCut        ... 1.0000e-14
Angular grids for H and He will be reduced by one unit
Partially contracted basis set               ... off
Rotationally invariant grid construction     ... off

Total number of grid points                  ...    44028
Total number of batches                      ...      692
Average number of points per batch           ...       63
Average number of grid points per atom       ...     7338
Time for grid setup =    0.583 sec

--------------
SCF ITERATIONS
--------------
ITER       Energy         Delta-E        Max-DP      RMS-DP      [F,P]     Damp
               ***  Starting incremental Fock matrix formation  ***
  0  -2641.3541497164   0.000000000000 0.12772949  0.00102850  0.0981387 0.7000
  1  -2641.3899988507  -0.035849134312 0.06793301  0.00060696  0.0376308 0.7000
                               ***Turning on DIIS***
  2  -2641.3989562903  -0.008957439646 0.04053045  0.00070717  0.0132218 0.0000
  3  -2641.4179016273  -0.018945337012 0.04854577  0.00045179  0.0257929 0.0000
  4  -2641.4208629069  -0.002961279555 0.00949809  0.00012949  0.0128075 0.0000
  5  -2641.4217928580  -0.000929951122 0.00256648  0.00005512  0.0037031 0.0000
                      *** Initiating the SOSCF procedure ***
                           *** Shutting down DIIS ***
                      *** Re-Reading the Fockian *** 
                      *** Removing any level shift *** 
ITER      Energy       Delta-E        Grad      Rot      Max-DP    RMS-DP
  6  -2641.42188582  -0.0000929643  0.000410  0.000410  0.001516  0.000019
               *** Restarting incremental Fock matrix formation ***
  7  -2641.42189449  -0.0000086657  0.000248  0.000604  0.000805  0.000015
  8  -2641.42189315   0.0000013413  0.000462  0.000600  0.000716  0.000009
  9  -2641.42189529  -0.0000021428  0.000048  0.000101  0.000268  0.000004
 10  -2641.42189522   0.0000000689  0.000077  0.000140  0.000144  0.000002
 11  -2641.42189533  -0.0000001134  0.000016  0.000081  0.000040  0.000001
 12  -2641.42189534  -0.0000000063  0.000009  0.000024  0.000022  0.000000
                  ***Gradient check signals convergence***
              ***Rediagonalizing the Fockian in SOSCF/NRSCF***

               *****************************************************
               *                     SUCCESS                       *
               *           SCF CONVERGED AFTER  13 CYCLES          *
               *****************************************************


----------------
TOTAL SCF ENERGY
----------------

Total Energy       :        -2641.42189534 Eh          -71876.74392 eV

Components:
Nuclear Repulsion  :          805.18920065 Eh           21910.31205 eV
Electronic Energy  :        -3446.61109599 Eh          -93787.05596 eV
One Electron Energy:        -5255.11692294 Eh         -142999.00140 eV
Two Electron Energy:         1808.50582695 Eh           49211.94544 eV

Virial components:
Potential Energy   :        -5279.39920821 Eh         -143659.75598 eV
Kinetic Energy     :         2637.97731287 Eh           71783.01206 eV
Virial Ratio       :            2.00130577


DFT components:
N(Alpha)           :       50.000005252390 electrons
N(Beta)            :       50.000005252390 electrons
N(Total)           :      100.000010504779 electrons
E(X)               :     -159.602746633987 Eh       
E(C)               :       -3.950389697255 Eh       
E(XC)              :     -163.553136331242 Eh       
DFET-embed. en.    :        0.000000000000 Eh       

---------------
SCF CONVERGENCE
---------------

  Last Energy change         ...    3.7608e-09  Tolerance :   1.0000e-08
  Last MAX-Density change    ...    4.7940e-06  Tolerance :   1.0000e-07
  Last RMS-Density change    ...    1.0223e-07  Tolerance :   5.0000e-09
  Last Orbital Gradient      ...    1.4887e-06  Tolerance :   1.0000e-05
  Last Orbital Rotation      ...    6.5929e-06  Tolerance :   1.0000e-05

             **** THE GBW FILE WAS UPDATED (PCl5_opt.gbw) ****
             **** DENSITY PCl5_opt.scfp WAS UPDATED ****
             **** ENERGY FILE WAS UPDATED (PCl5_opt.en.tmp) ****
             **** THE GBW FILE WAS UPDATED (PCl5_opt.gbw) ****
             **** DENSITY PCl5_opt.scfp WAS UPDATED ****
----------------
ORBITAL ENERGIES
----------------

  NO   OCC          E(Eh)            E(eV) 
   0   2.0000    -100.703366     -2740.2779 
   1   2.0000    -100.703363     -2740.2778 
   2   2.0000    -100.703362     -2740.2778 
   3   2.0000    -100.660261     -2739.1050 
   4   2.0000    -100.660253     -2739.1047 
   5   2.0000     -76.513864     -2082.0481 
   6   2.0000      -9.218187      -250.8396 
   7   2.0000      -9.218183      -250.8395 
   8   2.0000      -9.218183      -250.8395 
   9   2.0000      -9.175413      -249.6757 
  10   2.0000      -9.175388      -249.6750 
  11   2.0000      -7.041160      -191.5997 
  12   2.0000      -7.041158      -191.5996 
  13   2.0000      -7.041144      -191.5993 
  14   2.0000      -7.032460      -191.3630 
  15   2.0000      -7.032459      -191.3629 
  16   2.0000      -7.032458      -191.3629 
  17   2.0000      -7.030394      -191.3068 
  18   2.0000      -7.030390      -191.3066 
  19   2.0000      -7.030387      -191.3066 
  20   2.0000      -6.997668      -190.4162 
  21   2.0000      -6.997662      -190.4161 
  22   2.0000      -6.988956      -190.1792 
  23   2.0000      -6.988956      -190.1792 
  24   2.0000      -6.988955      -190.1791 
  25   2.0000      -6.988955      -190.1791 
  26   2.0000      -6.492991      -176.6833 
  27   2.0000      -4.710549      -128.1805 
  28   2.0000      -4.710541      -128.1803 
  29   2.0000      -4.708942      -128.1368 
  30   2.0000      -0.875724       -23.8297 
  31   2.0000      -0.801435       -21.8081 
  32   2.0000      -0.801433       -21.8081 
  33   2.0000      -0.762342       -20.7444 
  34   2.0000      -0.737548       -20.0697 
  35   2.0000      -0.584126       -15.8949 
  36   2.0000      -0.460182       -12.5222 
  37   2.0000      -0.460181       -12.5222 
  38   2.0000      -0.443502       -12.0683 
  39   2.0000      -0.363147        -9.8817 
  40   2.0000      -0.363145        -9.8817 
  41   2.0000      -0.349329        -9.5057 
  42   2.0000      -0.349326        -9.5057 
  43   2.0000      -0.327528        -8.9125 
  44   2.0000      -0.319157        -8.6847 
  45   2.0000      -0.298875        -8.1328 
  46   2.0000      -0.285788        -7.7767 
  47   2.0000      -0.285786        -7.7766 
  48   2.0000      -0.264282        -7.1915 
  49   2.0000      -0.264281        -7.1914 
  50   0.0000      -0.153776        -4.1845 
  51   0.0000      -0.071672        -1.9503 
  52   0.0000      -0.071672        -1.9503 
  53   0.0000      -0.033309        -0.9064 
  54   0.0000       0.096575         2.6279 
  55   0.0000       0.096580         2.6281 
  56   0.0000       0.123314         3.3556 
  57   0.0000       0.123318         3.3557 
  58   0.0000       0.174251         4.7416 
  59   0.0000       0.175952         4.7879 
  60   0.0000       0.175954         4.7879 
  61   0.0000       0.185448         5.0463 
  62   0.0000       0.215590         5.8665 
  63   0.0000       0.250667         6.8210 
  64   0.0000       0.261715         7.1216 
  65   0.0000       0.261717         7.1217 
  66   0.0000       0.264521         7.1980 
  67   0.0000       0.272799         7.4232 
  68   0.0000       0.272800         7.4233 
  69   0.0000       0.278380         7.5751 
  70   0.0000       0.278384         7.5752 
  71   0.0000       0.279861         7.6154 
  72   0.0000       0.308662         8.3991 
  73   0.0000       0.308670         8.3993 
  74   0.0000       0.314420         8.5558 
  75   0.0000       0.314422         8.5559 
  76   0.0000       0.316100         8.6015 
  77   0.0000       0.334303         9.0969 
  78   0.0000       0.334306         9.0969 
  79   0.0000       0.344340         9.3700 
  80   0.0000       0.346523         9.4294 
  81   0.0000       0.350738         9.5441 
  82   0.0000       0.391685        10.6583 
  83   0.0000       0.391686        10.6583 
  84   0.0000       0.413430        11.2500 
  85   0.0000       0.413431        11.2500 
  86   0.0000       0.437599        11.9077 
  87   0.0000       0.447434        12.1753 
  88   0.0000       0.447435        12.1753 
  89   0.0000       0.506658        13.7869 
  90   0.0000       0.506666        13.7871 
  91   0.0000       0.574415        15.6306 
  92   0.0000       0.577156        15.7052 
  93   0.0000       0.598004        16.2725 
  94   0.0000       0.598008        16.2726 
  95   0.0000       0.607806        16.5392 
  96   0.0000       0.607811        16.5394 
  97   0.0000       0.611644        16.6437 
  98   0.0000       0.611647        16.6438 
  99   0.0000       0.662316        18.0225 
 100   0.0000       0.684379        18.6229 
 101   0.0000       0.743988        20.2450 
 102   0.0000       0.743989        20.2450 
 103   0.0000       0.966858        26.3096 
 104   0.0000       0.969838        26.3906 
 105   0.0000       0.969840        26.3907 
 106   0.0000       1.007805        27.4238 
 107   0.0000       1.041083        28.3293 
 108   0.0000       1.134839        30.8805 
 109   0.0000       1.134842        30.8806 
 110   0.0000       1.249413        33.9983 
 111   0.0000       1.249418        33.9984 
 112   0.0000       1.291241        35.1364 
 113   0.0000       1.291243        35.1365 
 114   0.0000       1.312033        35.7022 
 115   0.0000       1.339619        36.4529 
 116   0.0000       1.346740        36.6467 
 117   0.0000       1.400744        38.1162 
 118   0.0000       1.400759        38.1166 
 119   0.0000       1.553142        42.2631 
 120   0.0000       1.577891        42.9366 
 121   0.0000       1.577911        42.9371 
 122   0.0000       1.590191        43.2713 
 123   0.0000       1.590196        43.2714 
 124   0.0000       1.611306        43.8459 
 125   0.0000       1.652616        44.9700 
 126   0.0000       1.652619        44.9700 
 127   0.0000       1.663061        45.2542 
 128   0.0000       1.674829        45.5744 
 129   0.0000       1.674836        45.5746 
 130   0.0000       1.674893        45.5762 
 131   0.0000       1.699121        46.2354 
 132   0.0000       1.699128        46.2356 
 133   0.0000       1.702560        46.3290 
 134   0.0000       1.720345        46.8130 
 135   0.0000       1.720347        46.8130 
 136   0.0000       1.751603        47.6635 
 137   0.0000       1.751622        47.6641 
 138   0.0000       1.781549        48.4784 
 139   0.0000       1.781550        48.4784 
 140   0.0000       1.794802        48.8391 
 141   0.0000       1.803476        49.0751 
 142   0.0000       1.838959        50.0406 
 143   0.0000       1.838961        50.0407 
 144   0.0000       1.852072        50.3974 
 145   0.0000       1.852089        50.3979 
 146   0.0000       1.927882        52.4603 
 147   0.0000       1.932614        52.5891 
 148   0.0000       1.955108        53.2012 
 149   0.0000       1.955109        53.2012 
 150   0.0000       1.956883        53.2495 
 151   0.0000       1.961708        53.3808 
 152   0.0000       1.961713        53.3809 
 153   0.0000       1.972246        53.6676 
 154   0.0000       1.980656        53.8964 
 155   0.0000       1.980659        53.8965 
 156   0.0000       1.983851        53.9833 
 157   0.0000       1.994082        54.2617 
 158   0.0000       1.994084        54.2618 
 159   0.0000       1.997611        54.3578 
 160   0.0000       2.003471        54.5172 
 161   0.0000       2.044998        55.6472 
 162   0.0000       2.054301        55.9004 
 163   0.0000       2.082133        56.6577 
 164   0.0000       2.082138        56.6578 
 165   0.0000       2.091462        56.9116 
 166   0.0000       2.096548        57.0500 
 167   0.0000       2.096560        57.0503 
 168   0.0000       2.100237        57.1504 
 169   0.0000       2.100253        57.1508 
 170   0.0000       2.120272        57.6955 
 171   0.0000       2.151397        58.5425 
 172   0.0000       2.151427        58.5433 
 173   0.0000       2.156922        58.6928 
 174   0.0000       2.179348        59.3031 
 175   0.0000       2.179373        59.3037 
 176   0.0000       2.183649        59.4201 
 177   0.0000       2.201347        59.9017 
 178   0.0000       2.201579        59.9080 
 179   0.0000       2.201604        59.9087 
 180   0.0000       2.247636        61.1613 
 181   0.0000       2.247643        61.1615 
 182   0.0000       2.261784        61.5463 
 183   0.0000       2.283299        62.1317 
 184   0.0000       2.283304        62.1319 
 185   0.0000       2.432139        66.1819 
 186   0.0000       2.460272        66.9474 
 187   0.0000       2.460283        66.9477 
 188   0.0000       2.556843        69.5752 
 189   0.0000       2.556851        69.5754 
 190   0.0000       2.644429        71.9586 
 191   0.0000       2.696124        73.3653 
 192   0.0000       2.768638        75.3385 
 193   0.0000       2.768650        75.3388 
 194   0.0000       3.065383        83.4133 
 195   0.0000       3.241751        88.2125 
 196   0.0000       3.241761        88.2128 
 197   0.0000       3.561139        96.9035 
 198   0.0000       7.281078       198.1282 
 199   0.0000       7.281117       198.1293 
 200   0.0000       7.368367       200.5034 
 201   0.0000      10.496886       285.6348 
 202   0.0000      10.503398       285.8120 
 203   0.0000      10.503419       285.8126 
 204   0.0000      10.505216       285.8614 
 205   0.0000      10.520896       286.2881 
 206   0.0000      10.520904       286.2884 
 207   0.0000      10.535996       286.6990 
 208   0.0000      10.535996       286.6990 
 209   0.0000      10.567664       287.5608 
 210   0.0000      10.567677       287.5611 
 211   0.0000      10.653447       289.8950 
 212   0.0000      10.918924       297.1190 
 213   0.0000      10.961461       298.2765 
 214   0.0000      11.063979       301.0662 
 215   0.0000      11.063986       301.0664 
 216   0.0000      14.100327       383.6894 
 217   0.0000      24.362158       662.9280 
 218   0.0000      24.717529       672.5982 
 219   0.0000      24.717542       672.5985 
 220   0.0000      24.895290       677.4353 
 221   0.0000      24.914314       677.9530 

                    ********************************
                    * MULLIKEN POPULATION ANALYSIS *
                    ********************************

-----------------------
MULLIKEN ATOMIC CHARGES
-----------------------
   0 P :    0.489828
   1 Cl:   -0.039848
   2 Cl:   -0.039865
   3 Cl:   -0.039865
   4 Cl:   -0.185125
   5 Cl:   -0.185125
Sum of atomic charges:    0.0000000

--------------------------------
MULLIKEN REDUCED ORBITAL CHARGES
--------------------------------
  0 P s       :     5.263620  s :     5.263620
      pz      :     2.788054  p :     8.290877
      px      :     2.751415
      py      :     2.751408
      dz2     :     0.268042  d :     0.873833
      dxz     :     0.139664
      dyz     :     0.139659
      dx2y2   :     0.163225
      dxy     :     0.163244
      f0      :     0.019306  f :     0.081842
      f+1     :     0.013228
      f-1     :     0.013228
      f+2     :     0.005711
      f-2     :     0.005712
      f+3     :     0.015740
      f-3     :     0.008918
  1 Cls       :     5.927096  s :     5.927096
      pz      :     3.920497  p :    11.050296
      px      :     3.838090
      py      :     3.291709
      dz2     :     0.011258  d :     0.058194
      dxz     :     0.001296
      dyz     :     0.014777
      dx2y2   :     0.020949
      dxy     :     0.009913
      f0      :     0.000341  f :     0.004263
      f+1     :     0.000084
      f-1     :     0.001170
      f+2     :     0.000574
      f-2     :     0.000066
      f+3     :     0.000759
      f-3     :     0.001269
  2 Cls       :     5.927099  s :     5.927099
      pz      :     3.920505  p :    11.050313
      px      :     3.428293
      py      :     3.701515
      dz2     :     0.011256  d :     0.058190
      dxz     :     0.011407
      dyz     :     0.004666
      dx2y2   :     0.012672
      dxy     :     0.018189
      f0      :     0.000341  f :     0.004263
      f+1     :     0.000899
      f-1     :     0.000355
      f+2     :     0.000193
      f-2     :     0.000447
      f+3     :     0.000759
      f-3     :     0.001269
  3 Cls       :     5.927099  s :     5.927099
      pz      :     3.920505  p :    11.050313
      px      :     3.428293
      py      :     3.701515
      dz2     :     0.011256  d :     0.058190
      dxz     :     0.011407
      dyz     :     0.004666
      dx2y2   :     0.012672
      dxy     :     0.018189
      f0      :     0.000341  f :     0.004263
      f+1     :     0.000899
      f-1     :     0.000355
      f+2     :     0.000193
      f-2     :     0.000447
      f+3     :     0.000759
      f-3     :     0.001269
  4 Cls       :     5.943213  s :     5.943213
      pz      :     3.349476  p :    11.192473
      px      :     3.921501
      py      :     3.921496
      dz2     :     0.022774  d :     0.046285
      dxz     :     0.009486
      dyz     :     0.009487
      dx2y2   :     0.002269
      dxy     :     0.002269
      f0      :     0.001609  f :     0.003155
      f+1     :     0.000592
      f-1     :     0.000592
      f+2     :     0.000156
      f-2     :     0.000156
      f+3     :     0.000018
      f-3     :     0.000032
  5 Cls       :     5.943213  s :     5.943213
      pz      :     3.349476  p :    11.192473
      px      :     3.921501
      py      :     3.921496
      dz2     :     0.022774  d :     0.046285
      dxz     :     0.009486
      dyz     :     0.009487
      dx2y2   :     0.002269
      dxy     :     0.002269
      f0      :     0.001609  f :     0.003155
      f+1     :     0.000592
      f-1     :     0.000592
      f+2     :     0.000156
      f-2     :     0.000156
      f+3     :     0.000018
      f-3     :     0.000032


                     *******************************
                     * LOEWDIN POPULATION ANALYSIS *
                     *******************************

----------------------
LOEWDIN ATOMIC CHARGES
----------------------
   0 P :   -0.692714
   1 Cl:    0.211876
   2 Cl:    0.211854
   3 Cl:    0.211854
   4 Cl:    0.028565
   5 Cl:    0.028565

-------------------------------
LOEWDIN REDUCED ORBITAL CHARGES
-------------------------------
  0 P s       :     4.983923  s :     4.983923
      pz      :     2.944774  p :     8.766736
      px      :     2.910982
      py      :     2.910981
      dz2     :     0.591880  d :     1.668458
      dxz     :     0.205217
      dyz     :     0.205216
      dx2y2   :     0.333070
      dxy     :     0.333075
      f0      :     0.068781  f :     0.273596
      f+1     :     0.042761
      f-1     :     0.042762
      f+2     :     0.015617
      f-2     :     0.015617
      f+3     :     0.046296
      f-3     :     0.041762
  1 Cls       :     5.681841  s :     5.681841
      pz      :     3.874350  p :    11.006838
      px      :     3.788286
      py      :     3.344202
      dz2     :     0.017458  d :     0.091549
      dxz     :     0.001450
      dyz     :     0.022503
      dx2y2   :     0.039450
      dxy     :     0.010688
      f0      :     0.000541  f :     0.007896
      f+1     :     0.000099
      f-1     :     0.002162
      f+2     :     0.001109
      f-2     :     0.000076
      f+3     :     0.000961
      f-3     :     0.002946
  2 Cls       :     5.681855  s :     5.681855
      pz      :     3.874353  p :    11.006851
      px      :     3.455218
      py      :     3.677280
      dz2     :     0.017456  d :     0.091544
      dxz     :     0.017239
      dyz     :     0.006713
      dx2y2   :     0.017878
      dxy     :     0.032258
      f0      :     0.000541  f :     0.007896
      f+1     :     0.001646
      f-1     :     0.000615
      f+2     :     0.000335
      f-2     :     0.000851
      f+3     :     0.000961
      f-3     :     0.002946
  3 Cls       :     5.681855  s :     5.681855
      pz      :     3.874353  p :    11.006851
      px      :     3.455218
      py      :     3.677280
      dz2     :     0.017456  d :     0.091544
      dxz     :     0.017239
      dyz     :     0.006713
      dx2y2   :     0.017878
      dxy     :     0.032258
      f0      :     0.000541  f :     0.007896
      f+1     :     0.001646
      f-1     :     0.000615
      f+2     :     0.000335
      f-2     :     0.000851
      f+3     :     0.000961
      f-3     :     0.002946
  4 Cls       :     5.741841  s :     5.741841
      pz      :     3.373550  p :    11.149625
      px      :     3.888038
      py      :     3.888036
      dz2     :     0.041155  d :     0.074090
      dxz     :     0.013247
      dyz     :     0.013247
      dx2y2   :     0.003220
      dxy     :     0.003220
      f0      :     0.003559  f :     0.005880
      f+1     :     0.000915
      f-1     :     0.000915
      f+2     :     0.000197
      f-2     :     0.000197
      f+3     :     0.000029
      f-3     :     0.000069
  5 Cls       :     5.741841  s :     5.741841
      pz      :     3.373550  p :    11.149625
      px      :     3.888038
      py      :     3.888036
      dz2     :     0.041155  d :     0.074090
      dxz     :     0.013247
      dyz     :     0.013247
      dx2y2   :     0.003220
      dxy     :     0.003220
      f0      :     0.003559  f :     0.005880
      f+1     :     0.000915
      f-1     :     0.000915
      f+2     :     0.000197
      f-2     :     0.000197
      f+3     :     0.000029
      f-3     :     0.000069


                      *****************************
                      * MAYER POPULATION ANALYSIS *
                      *****************************

  NA   - Mulliken gross atomic population
  ZA   - Total nuclear charge
  QA   - Mulliken gross atomic charge
  VA   - Mayer's total valence
  BVA  - Mayer's bonded valence
  FA   - Mayer's free valence

  ATOM       NA         ZA         QA         VA         BVA        FA
  0 P     14.5102    15.0000     0.4898     5.6315     5.6315    -0.0000
  1 Cl    17.0398    17.0000    -0.0398     1.3748     1.3748    -0.0000
  2 Cl    17.0399    17.0000    -0.0399     1.3747     1.3747     0.0000
  3 Cl    17.0399    17.0000    -0.0399     1.3747     1.3747    -0.0000
  4 Cl    17.1851    17.0000    -0.1851     1.1824     1.1824     0.0000
  5 Cl    17.1851    17.0000    -0.1851     1.1824     1.1824     0.0000

  Mayer bond orders larger than 0.100000
B(  0-P ,  1-Cl) :   1.1988 B(  0-P ,  2-Cl) :   1.1988 B(  0-P ,  3-Cl) :   1.1988 
B(  0-P ,  4-Cl) :   1.0176 B(  0-P ,  5-Cl) :   1.0176 

-------
TIMINGS
-------

Total SCF time: 0 days 0 hours 0 min 13 sec 

Total time                  ....      13.045 sec
Sum of individual times     ....      12.625 sec  ( 96.8%)

Fock matrix formation       ....      11.306 sec  ( 86.7%)
  Split-RI-J                ....       3.549 sec  ( 31.4% of F)
  XC integration            ....       7.681 sec  ( 67.9% of F)
    Basis function eval.    ....       2.263 sec  ( 29.5% of XC)
    Density eval.           ....       2.237 sec  ( 29.1% of XC)
    XC-Functional eval.     ....       0.327 sec  (  4.3% of XC)
    XC-Potential eval.      ....       2.413 sec  ( 31.4% of XC)
Diagonalization             ....       0.081 sec  (  0.6%)
Density matrix formation    ....       0.014 sec  (  0.1%)
Population analysis         ....       0.019 sec  (  0.1%)
Initial guess               ....       0.355 sec  (  2.7%)
Orbital Transformation      ....       0.000 sec  (  0.0%)
Orbital Orthonormalization  ....       0.000 sec  (  0.0%)
DIIS solution               ....       0.066 sec  (  0.5%)
SOSCF solution              ....       0.081 sec  (  0.6%)
Grid generation             ....       0.703 sec  (  5.4%)

Maximum memory used throughout the entire SCF-calculation: 88.8 MB

-------------------------   --------------------
FINAL SINGLE POINT ENERGY     -2641.421895336486
-------------------------   --------------------

------------------------------------------------------------------------------
                         ORCA SCF GRADIENT CALCULATION
------------------------------------------------------------------------------

Gradient of the Kohn-Sham DFT energy:
Kohn-Sham wavefunction type      ... RKS
Hartree-Fock exchange scaling    ...    0.000
Number of operators              ...    1
Number of atoms                  ...    6
Basis set dimensions             ...  222
Integral neglect threshold       ... 2.5e-11
Integral primitive cutoff        ... 2.5e-12
SHARK Integral package           ... ON

Nuc. rep. gradient       (SHARK) ... done (  0.0 sec)
HCore & Overlap gradient (SHARK) ... done (  0.1 sec)
RI-J gradient            (SHARK) ... done (  1.9 sec)
Exchange-correlation gradient    ... done

------------------
CARTESIAN GRADIENT
------------------

   1   P   :    0.000000001    0.000016229   -0.000000001
   2   Cl  :   -0.000000001   -0.010071514    0.000000000
   3   Cl  :   -0.008731313    0.005033769   -0.000000000
   4   Cl  :    0.008731314    0.005033771    0.000000001
   5   Cl  :   -0.000000001   -0.000006128   -0.004347722
   6   Cl  :   -0.000000000   -0.000006127    0.004347722

Difference to translation invariance:
           :    0.0000000000   -0.0000000000   -0.0000000000

Difference to rotation invariance:
           :    0.0000000021    0.0000000014   -0.0000000007

Norm of the cartesian gradient     ...    0.0185037958
RMS gradient                       ...    0.0043613865
MAX gradient                       ...    0.0100715136

-------
TIMINGS
-------

Total SCF gradient time            ...        4.766 sec

One electron gradient       ....       0.123 sec  (  2.6%)
RI-J Coulomb gradient       ....       1.858 sec  ( 39.0%)
XC gradient                 ....       2.682 sec  ( 56.3%)

Maximum memory used throughout the entire SCFGRAD-calculation: 87.5 MB
------------------------------------------------------------------------------
                         ORCA GEOMETRY RELAXATION STEP
------------------------------------------------------------------------------

Reading the OPT-File                    .... done
Getting information on internals        .... done
Copying old internal coords+grads       .... done
Making the new internal coordinates     .... (new redundants).... done
Validating the new internal coordinates .... (new redundants).... done
Calculating the B-matrix                .... done
Calculating the G,G- and P matrices     .... done
Transforming gradient to internals      .... done
Projecting the internal gradient        .... done
Number of atoms                         ....   6
Number of internal coordinates          ....  14
Current Energy                          .... -2641.421895336 Eh
Current gradient norm                   ....     0.018503796 Eh/bohr
Maximum allowed component of the step   ....  0.300
Current trust radius                    ....  0.300
Evaluating the initial hessian          ....  (Almloef) done
Projecting the Hessian                  .... done
Forming the augmented Hessian           .... done
Diagonalizing the augmented Hessian     .... done
Last element of RFO vector              ....  0.999091882
Lowest eigenvalues of augmented Hessian:
 -0.000778818  0.299675550  0.299800884  0.443571467  0.443571467
Length of the computed step             ....  0.042646364
The final length of the internal step   ....  0.042646364
Converting the step to cartesian space:
 Initial RMS(Int)=    0.0113977203
Transforming coordinates:
 Iter   0:  RMS(Cart)=    0.0100519041 RMS(Int)=    0.0113977208
 Iter   1:  RMS(Cart)=    0.0000001400 RMS(Int)=    0.0000000859
 Iter   2:  RMS(Cart)=    0.0000000006 RMS(Int)=    0.0000000004
done
Storing new coordinates                 .... done

                                .--------------------.
          ----------------------|Geometry convergence|-------------------------
          Item                value                   Tolerance       Converged
          ---------------------------------------------------------------------
          RMS gradient        0.0049453531            0.0001000000      NO
          MAX gradient        0.0100784254            0.0003000000      NO
          RMS step            0.0113977203            0.0020000000      NO
          MAX step            0.0216074195            0.0040000000      NO
          ........................................................
          Max(Bonds)      0.0114      Max(Angles)    0.00
          Max(Dihed)        0.00      Max(Improp)    0.00
          ---------------------------------------------------------------------

The optimization has not yet converged - more geometry cycles are needed


    ---------------------------------------------------------------------------
                         Redundant Internal Coordinates
                            (Angstroem and degrees)

        Definition                    Value    dE/dq     Step     New-Value
    ----------------------------------------------------------------------------
     1. B(Cl  1,P   0)                2.0200 -0.010072  0.0114    2.0314   
     2. B(Cl  2,P   0)                2.0200 -0.010078  0.0114    2.0315   
     3. B(Cl  3,P   0)                2.0200 -0.010078  0.0114    2.0315   
     4. B(Cl  4,P   0)                2.1400 -0.004348  0.0077    2.1477   
     5. B(Cl  5,P   0)                2.1400 -0.004348  0.0077    2.1477   
     6. A(Cl  1,P   0,Cl  3)          120.00  0.000008   -0.00    120.00   
     7. A(Cl  2,P   0,Cl  3)          120.00 -0.000016    0.00    120.00   
     8. A(Cl  1,P   0,Cl  4)           90.00  0.000017   -0.00     90.00   
     9. A(Cl  2,P   0,Cl  4)           90.00 -0.000008    0.00     90.00   
    10. A(Cl  3,P   0,Cl  4)           90.00 -0.000008    0.00     90.00   
    11. A(Cl  1,P   0,Cl  5)           90.00  0.000017   -0.00     90.00   
    12. A(Cl  2,P   0,Cl  5)           90.00 -0.000008    0.00     90.00   
    13. A(Cl  3,P   0,Cl  5)           90.00 -0.000008    0.00     90.00   
    14. A(Cl  1,P   0,Cl  2)          120.00  0.000008   -0.00    120.00   
    ----------------------------------------------------------------------------

         *************************************************************
         *                GEOMETRY OPTIMIZATION CYCLE   2            *
         *************************************************************
---------------------------------
CARTESIAN COORDINATES (ANGSTROEM)
---------------------------------
  P     -0.000000   -0.000035    0.000000
  Cl     0.000000    2.031390   -0.000000
  Cl     1.759319   -1.015723    0.000000
  Cl    -1.759319   -1.015723   -0.000000
  Cl     0.000000    0.000045    2.147657
  Cl     0.000000    0.000045   -2.147657

----------------------------
CARTESIAN COORDINATES (A.U.)
----------------------------
  NO LB      ZA    FRAG     MASS         X           Y           Z
   0 P    15.0000    0    30.974   -0.000000   -0.000066    0.000000
   1 Cl   17.0000    0    35.453    0.000000    3.838772   -0.000000
   2 Cl   17.0000    0    35.453    3.324631   -1.919438    0.000000
   3 Cl   17.0000    0    35.453   -3.324631   -1.919438   -0.000000
   4 Cl   17.0000    0    35.453    0.000000    0.000085    4.058484
   5 Cl   17.0000    0    35.453    0.000000    0.000085   -4.058484

--------------------------------
INTERNAL COORDINATES (ANGSTROEM)
--------------------------------
 P      0   0   0     0.000000000000     0.00000000     0.00000000
 Cl     1   0   0     2.031425271438     0.00000000     0.00000000
 Cl     1   2   0     2.031458993585   119.99865244     0.00000000
 Cl     1   2   3     2.031458995362   119.99865288   180.00000000
 Cl     1   2   3     2.147657453360    89.99786984    89.99999978
 Cl     1   2   3     2.147657453229    89.99786982   270.00000012

---------------------------
INTERNAL COORDINATES (A.U.)
---------------------------
 P      0   0   0     0.000000000000     0.00000000     0.00000000
 Cl     1   0   0     3.838837424545     0.00000000     0.00000000
 Cl     1   2   0     3.838901150167   119.99865244     0.00000000
 Cl     1   2   3     3.838901153525   119.99865288   180.00000000
 Cl     1   2   3     4.058484416326    89.99786984    89.99999978
 Cl     1   2   3     4.058484416078    89.99786982   270.00000012

------------------------------------------------------------------------------
                   ___                                                        
                  /   \      - P O W E R E D   B Y -                         
                 /     \                                                     
                 |  |  |   _    _      __       _____    __    __             
                 |  |  |  | |  | |    /  \     |  _  \  |  |  /  |          
                  \  \/   | |  | |   /    \    | | | |  |  | /  /          
                 / \  \   | |__| |  /  /\  \   | |_| |  |  |/  /          
                |  |  |   |  __  | /  /__\  \  |    /   |      \           
                |  |  |   | |  | | |   __   |  |    \   |  |\   \          
                \     /   | |  | | |  |  |  |  | |\  \  |  | \   \       
                 \___/    |_|  |_| |__|  |__|  |_| \__\ |__|  \__/        
                                                                              
                      - O R C A' S   B I G   F R I E N D -                    
                                      &                                       
                       - I N T E G R A L  F E E D E R -                       
                                                                              
 v1 FN, 2020, v2 2021                                                         
------------------------------------------------------------------------------


Reading SHARK input file PCl5_opt.SHARKINP.tmp ... ok
----------------------
SHARK INTEGRAL PACKAGE
----------------------

Number of atoms                             ...      6
Number of basis functions                   ...    222
Number of shells                            ...     78
Maximum angular momentum                    ...      3
Integral batch strategy                     ... SHARK/LIBINT Hybrid
RI-J (if used) integral strategy            ... SPLIT-RIJ (Revised 2003 algorithm where possible)
Printlevel                                  ...      1
Contraction scheme used                     ... SEGMENTED contraction
Coulomb Range Separation                    ... NOT USED
Exchange Range Separation                   ... NOT USED
Finite Nucleus Model                        ... NOT USED
Auxiliary Coulomb fitting basis             ... AVAILABLE
   # of basis functions in Aux-J            ...    306
   # of shells in Aux-J                     ...    102
   Maximum angular momentum in Aux-J        ...      4
Auxiliary J/K fitting basis                 ... NOT available
Auxiliary Correlation fitting basis         ... NOT available
Auxiliary 'external' fitting basis          ... NOT available
Integral threshold                          ...     2.500000e-11
Primitive cut-off                           ...     2.500000e-12
Primitive pair pre-selection threshold      ...     2.500000e-12

Calculating pre-screening integrals         ... done (  0.1 sec) Dimension = 78
Organizing shell pair data                  ... done (  0.1 sec)
Shell pair information
Total number of shell pairs                 ...      3081
Shell pairs after pre-screening             ...      2651
Total number of primitive shell pairs       ...     13419
Primitive shell pairs kept                  ...      7675
          la=0 lb=0:    344 shell pairs
          la=1 lb=0:    711 shell pairs
          la=1 lb=1:    403 shell pairs
          la=2 lb=0:    330 shell pairs
          la=2 lb=1:    342 shell pairs
          la=2 lb=2:     78 shell pairs
          la=3 lb=0:    174 shell pairs
          la=3 lb=1:    176 shell pairs
          la=3 lb=2:     72 shell pairs
          la=3 lb=3:     21 shell pairs

Calculating one electron integrals          ... done (  0.0 sec)
Calculating RI/J V-Matrix + Cholesky decomp.... done (  0.0 sec)
Calculating Nuclear repulsion               ... done (  0.0 sec) ENN=    801.331414640291 Eh

SHARK setup successfully completed in   0.3 seconds

Maximum memory used throughout the entire GTOINT-calculation: 74.2 MB

Diagonalization of the overlap matrix:
Smallest eigenvalue                        ... 3.230e-03
Time for diagonalization                   ...    0.005 sec
Threshold for overlap eigenvalues          ... 1.000e-08
Number of eigenvalues below threshold      ... 0
Time for construction of square roots      ...    0.005 sec
Total time needed                          ...    0.011 sec

-------------------
DFT GRID GENERATION
-------------------

General Integration Accuracy     IntAcc      ... 4.388
Radial Grid Type                 RadialGrid  ... OptM3 with GC (2021)
Angular Grid (max. ang.)         AngularGrid ... 4 (Lebedev-302)
Angular grid pruning method      GridPruning ... 4 (adaptive)
Weight generation scheme         WeightScheme... Becke
Basis function cutoff            BFCut       ... 1.0000e-11
Integration weight cutoff        WCut        ... 1.0000e-14
Angular grids for H and He will be reduced by one unit
Partially contracted basis set               ... off
Rotationally invariant grid construction     ... off

Total number of grid points                  ...    44028
Total number of batches                      ...      692
Average number of points per batch           ...       63
Average number of grid points per atom       ...     7338
Time for grid setup =    0.476 sec

--------------
SCF ITERATIONS
--------------
ITER       Energy         Delta-E        Max-DP      RMS-DP      [F,P]     Damp
               ***  Starting incremental Fock matrix formation  ***
                      *** Initiating the SOSCF procedure ***
                      *** Re-Reading the Fockian *** 
                      *** Removing any level shift *** 
ITER      Energy       Delta-E        Grad      Rot      Max-DP    RMS-DP
  0  -2641.42239866 -2641.4223986563  0.001799  0.001799  0.006753  0.000077
               *** Restarting incremental Fock matrix formation ***
  1  -2641.42247331  -0.0000746516  0.001660  0.003891  0.008764  0.000080
  2  -2641.42241818   0.0000551309  0.002699  0.001880  0.004961  0.000043
  3  -2641.42249065  -0.0000724721  0.000050  0.000284  0.000351  0.000007
  4  -2641.42249069  -0.0000000449  0.000063  0.000176  0.000169  0.000003
  5  -2641.42249081  -0.0000001136  0.000027  0.000082  0.000109  0.000002
  6  -2641.42249079   0.0000000137  0.000025  0.000043  0.000057  0.000001
                  ***Gradient check signals convergence***
              ***Rediagonalizing the Fockian in SOSCF/NRSCF***

               *****************************************************
               *                     SUCCESS                       *
               *           SCF CONVERGED AFTER   7 CYCLES          *
               *****************************************************

Total Energy       :        -2641.42249082 Eh          -71876.76012 eV
  Last Energy change         ...   -2.1280e-08  Tolerance :   1.0000e-08
  Last MAX-Density change    ...    1.5983e-05  Tolerance :   1.0000e-07
             **** THE GBW FILE WAS UPDATED (PCl5_opt.gbw) ****
             **** DENSITY PCl5_opt.scfp WAS UPDATED ****
             **** ENERGY FILE WAS UPDATED (PCl5_opt.en.tmp) ****
             **** THE GBW FILE WAS UPDATED (PCl5_opt.gbw) ****
             **** DENSITY PCl5_opt.scfp WAS UPDATED ****
Total SCF time: 0 days 0 hours 0 min 7 sec 

Maximum memory used throughout the entire SCF-calculation: 88.4 MB

-------------------------   --------------------
FINAL SINGLE POINT ENERGY     -2641.422490815311
-------------------------   --------------------

------------------------------------------------------------------------------
                         ORCA SCF GRADIENT CALCULATION
------------------------------------------------------------------------------

Gradient of the Kohn-Sham DFT energy:
Kohn-Sham wavefunction type      ... RKS
Hartree-Fock exchange scaling    ...    0.000
Number of operators              ...    1
Number of atoms                  ...    6
Basis set dimensions             ...  222
Integral neglect threshold       ... 2.5e-11
Integral primitive cutoff        ... 2.5e-12
SHARK Integral package           ... ON

Nuc. rep. gradient       (SHARK) ... done (  0.0 sec)
HCore & Overlap gradient (SHARK) ... done (  0.1 sec)
RI-J gradient            (SHARK) ... done (  1.8 sec)
Exchange-correlation gradient    ... done

------------------
CARTESIAN GRADIENT
------------------

   1   P   :   -0.000000001    0.000006424    0.000000001
   2   Cl  :   -0.000000002   -0.005762277   -0.000000001
   3   Cl  :   -0.004982674    0.002877337    0.000000001
   4   Cl  :    0.004982679    0.002877343   -0.000000003
   5   Cl  :    0.000000001    0.000000587   -0.001464078
   6   Cl  :   -0.000000003    0.000000586    0.001464080

Difference to translation invariance:
           :   -0.0000000000    0.0000000000   -0.0000000000

Difference to rotation invariance:
           :   -0.0000000036    0.0000000011   -0.0000000034

Norm of the cartesian gradient     ...    0.0101834783
RMS gradient                       ...    0.0024002689
MAX gradient                       ...    0.0057622769

-------
TIMINGS
-------

Total SCF gradient time            ...        5.201 sec

One electron gradient       ....       0.126 sec  (  2.4%)
RI-J Coulomb gradient       ....       1.820 sec  ( 35.0%)
XC gradient                 ....       3.150 sec  ( 60.6%)

Maximum memory used throughout the entire SCFGRAD-calculation: 87.5 MB
------------------------------------------------------------------------------
                         ORCA GEOMETRY RELAXATION STEP
------------------------------------------------------------------------------

Reading the OPT-File                    .... done
Getting information on internals        .... done
Copying old internal coords+grads       .... done
Making the new internal coordinates     .... (new redundants).... done
Validating the new internal coordinates .... (new redundants).... done
Calculating the B-matrix                .... done
Calculating the G,G- and P matrices     .... done
Transforming gradient to internals      .... done
Projecting the internal gradient        .... done
Number of atoms                         ....   6
Number of internal coordinates          ....  14
Current Energy                          .... -2641.422490815 Eh
Current gradient norm                   ....     0.010183478 Eh/bohr
Maximum allowed component of the step   ....  0.300
Current trust radius                    ....  0.300
Updating the Hessian (BFGS)             .... done
Forming the augmented Hessian           .... done
Diagonalizing the augmented Hessian     .... done
Last element of RFO vector              ....  0.998779468
Lowest eigenvalues of augmented Hessian:
 -0.000500441  0.200274818  0.299675550  0.326501486  0.443571467
Length of the computed step             ....  0.049452399
The final length of the internal step   ....  0.049452399
Converting the step to cartesian space:
 Initial RMS(Int)=    0.0132167095
Transforming coordinates:
 Iter   0:  RMS(Cart)=    0.0116560457 RMS(Int)=    0.0132167095
 Iter   1:  RMS(Cart)=    0.0000000250 RMS(Int)=    0.0000000169
done
Storing new coordinates                 .... done

                                .--------------------.
          ----------------------|Geometry convergence|-------------------------
          Item                value                   Tolerance       Converged
          ---------------------------------------------------------------------
          Energy change      -0.0005954788            0.0000050000      NO
          RMS gradient        0.0027216487            0.0001000000      NO
          MAX gradient        0.0057622769            0.0003000000      NO
          RMS step            0.0132167095            0.0020000000      NO
          MAX step            0.0271547739            0.0040000000      NO
          ........................................................
          Max(Bonds)      0.0144      Max(Angles)    0.00
          Max(Dihed)        0.00      Max(Improp)    0.00
          ---------------------------------------------------------------------

The optimization has not yet converged - more geometry cycles are needed


    ---------------------------------------------------------------------------
                         Redundant Internal Coordinates
                            (Angstroem and degrees)

        Definition                    Value    dE/dq     Step     New-Value
    ----------------------------------------------------------------------------
     1. B(Cl  1,P   0)                2.0314 -0.005762  0.0144    2.0458   
     2. B(Cl  2,P   0)                2.0315 -0.005754  0.0144    2.0458   
     3. B(Cl  3,P   0)                2.0315 -0.005754  0.0144    2.0458   
     4. B(Cl  4,P   0)                2.1477 -0.001464  0.0058    2.1534   
     5. B(Cl  5,P   0)                2.1477 -0.001464  0.0058    2.1534   
     6. A(Cl  1,P   0,Cl  3)          120.00 -0.000001    0.00    120.00   
     7. A(Cl  2,P   0,Cl  3)          120.00  0.000002   -0.00    120.00   
     8. A(Cl  1,P   0,Cl  4)           90.00 -0.000002    0.00     90.00   
     9. A(Cl  2,P   0,Cl  4)           90.00  0.000001   -0.00     90.00   
    10. A(Cl  3,P   0,Cl  4)           90.00  0.000001   -0.00     90.00   
    11. A(Cl  1,P   0,Cl  5)           90.00 -0.000002    0.00     90.00   
    12. A(Cl  2,P   0,Cl  5)           90.00  0.000001   -0.00     90.00   
    13. A(Cl  3,P   0,Cl  5)           90.00  0.000001   -0.00     90.00   
    14. A(Cl  1,P   0,Cl  2)          120.00 -0.000001    0.00    120.00   
    ----------------------------------------------------------------------------

         *************************************************************
         *                GEOMETRY OPTIMIZATION CYCLE   3            *
         *************************************************************
---------------------------------
CARTESIAN COORDINATES (ANGSTROEM)
---------------------------------
  P     -0.000000   -0.000031   -0.000000
  Cl     0.000000    2.045764    0.000000
  Cl     1.771744   -1.022900   -0.000000
  Cl    -1.771744   -1.022900    0.000000
  Cl    -0.000000    0.000034    2.153422
  Cl     0.000000    0.000034   -2.153422

----------------------------
CARTESIAN COORDINATES (A.U.)
----------------------------
  NO LB      ZA    FRAG     MASS         X           Y           Z
   0 P    15.0000    0    30.974   -0.000000   -0.000059   -0.000000
   1 Cl   17.0000    0    35.453    0.000000    3.865933    0.000000
   2 Cl   17.0000    0    35.453    3.348111   -1.933001   -0.000000
   3 Cl   17.0000    0    35.453   -3.348111   -1.933001    0.000000
   4 Cl   17.0000    0    35.453   -0.000000    0.000063    4.069377
   5 Cl   17.0000    0    35.453    0.000000    0.000063   -4.069377

--------------------------------
INTERNAL COORDINATES (ANGSTROEM)
--------------------------------
 P      0   0   0     0.000000000000     0.00000000     0.00000000
 Cl     1   0   0     2.045794958874     0.00000000     0.00000000
 Cl     1   2   0     2.045809623203   119.99883144     0.00000000
 Cl     1   2   3     2.045809643596   119.99883438   179.99999852
 Cl     1   2   3     2.153421616130    89.99827996    89.99999974
 Cl     1   2   3     2.153421622483    89.99828042   270.00000137

---------------------------
INTERNAL COORDINATES (A.U.)
---------------------------
 P      0   0   0     0.000000000000     0.00000000     0.00000000
 Cl     1   0   0     3.865992198428     0.00000000     0.00000000
 Cl     1   2   0     3.866019909994   119.99883144     0.00000000
 Cl     1   2   3     3.866019948531   119.99883438   179.99999852
 Cl     1   2   3     4.069377105352    89.99827996    89.99999974
 Cl     1   2   3     4.069377117357    89.99828042   270.00000137

------------------------------------------------------------------------------
                   ___                                                        
                  /   \      - P O W E R E D   B Y -                         
                 /     \                                                     
                 |  |  |   _    _      __       _____    __    __             
                 |  |  |  | |  | |    /  \     |  _  \  |  |  /  |          
                  \  \/   | |  | |   /    \    | | | |  |  | /  /          
                 / \  \   | |__| |  /  /\  \   | |_| |  |  |/  /          
                |  |  |   |  __  | /  /__\  \  |    /   |      \           
                |  |  |   | |  | | |   __   |  |    \   |  |\   \          
                \     /   | |  | | |  |  |  |  | |\  \  |  | \   \       
                 \___/    |_|  |_| |__|  |__|  |_| \__\ |__|  \__/        
                                                                              
                      - O R C A' S   B I G   F R I E N D -                    
                                      &                                       
                       - I N T E G R A L  F E E D E R -                       
                                                                              
 v1 FN, 2020, v2 2021                                                         
------------------------------------------------------------------------------


Reading SHARK input file PCl5_opt.SHARKINP.tmp ... ok
----------------------
SHARK INTEGRAL PACKAGE
----------------------

Number of atoms                             ...      6
Number of basis functions                   ...    222
Number of shells                            ...     78
Maximum angular momentum                    ...      3
Integral batch strategy                     ... SHARK/LIBINT Hybrid
RI-J (if used) integral strategy            ... SPLIT-RIJ (Revised 2003 algorithm where possible)
Printlevel                                  ...      1
Contraction scheme used                     ... SEGMENTED contraction
Coulomb Range Separation                    ... NOT USED
Exchange Range Separation                   ... NOT USED
Finite Nucleus Model                        ... NOT USED
Auxiliary Coulomb fitting basis             ... AVAILABLE
   # of basis functions in Aux-J            ...    306
   # of shells in Aux-J                     ...    102
   Maximum angular momentum in Aux-J        ...      4
Auxiliary J/K fitting basis                 ... NOT available
Auxiliary Correlation fitting basis         ... NOT available
Auxiliary 'external' fitting basis          ... NOT available
Integral threshold                          ...     2.500000e-11
Primitive cut-off                           ...     2.500000e-12
Primitive pair pre-selection threshold      ...     2.500000e-12

Calculating pre-screening integrals         ... done (  0.1 sec) Dimension = 78
Organizing shell pair data                  ... done (  0.1 sec)
Shell pair information
Total number of shell pairs                 ...      3081
Shell pairs after pre-screening             ...      2625
Total number of primitive shell pairs       ...     13419
Primitive shell pairs kept                  ...      7599
          la=0 lb=0:    344 shell pairs
          la=1 lb=0:    697 shell pairs
          la=1 lb=1:    401 shell pairs
          la=2 lb=0:    326 shell pairs
          la=2 lb=1:    342 shell pairs
          la=2 lb=2:     78 shell pairs
          la=3 lb=0:    168 shell pairs
          la=3 lb=1:    176 shell pairs
          la=3 lb=2:     72 shell pairs
          la=3 lb=3:     21 shell pairs

Calculating one electron integrals          ... done (  0.0 sec)
[...]
  63   0.0000       0.249288         6.7835 
  64   0.0000       0.263825         7.1790 
  65   0.0000       0.263833         7.1793 
  66   0.0000       0.264335         7.1929 
  67   0.0000       0.275993         7.5102 
  68   0.0000       0.275995         7.5102 
  69   0.0000       0.278345         7.5742 
  70   0.0000       0.278354         7.5744 
  71   0.0000       0.281987         7.6732 
  72   0.0000       0.306556         8.3418 
  73   0.0000       0.306561         8.3419 
  74   0.0000       0.312472         8.5028 
  75   0.0000       0.312476         8.5029 
  76   0.0000       0.315495         8.5851 
  77   0.0000       0.332321         9.0429 
  78   0.0000       0.332336         9.0433 
  79   0.0000       0.343358         9.3432 
  80   0.0000       0.345594         9.4041 
  81   0.0000       0.348589         9.4856 
  82   0.0000       0.388291        10.5659 
  83   0.0000       0.388293        10.5660 
  84   0.0000       0.410300        11.1648 
  85   0.0000       0.410311        11.1651 
  86   0.0000       0.431808        11.7501 
  87   0.0000       0.441008        12.0004 
  88   0.0000       0.441026        12.0009 
  89   0.0000       0.499261        13.5856 
  90   0.0000       0.499285        13.5862 
  91   0.0000       0.563765        15.3408 
  92   0.0000       0.569657        15.5011 
  93   0.0000       0.589537        16.0421 
  94   0.0000       0.589541        16.0422 
  95   0.0000       0.603585        16.4244 
  96   0.0000       0.603614        16.4252 
  97   0.0000       0.604444        16.4478 
  98   0.0000       0.604457        16.4481 
  99   0.0000       0.662026        18.0147 
 100   0.0000       0.672657        18.3039 
 101   0.0000       0.726124        19.7588 
 102   0.0000       0.726132        19.7591 
 103   0.0000       0.962893        26.2016 
 104   0.0000       0.967461        26.3259 
 105   0.0000       0.967490        26.3268 
 106   0.0000       1.006686        27.3933 
 107   0.0000       1.035180        28.1687 
 108   0.0000       1.133263        30.8376 
 109   0.0000       1.133300        30.8387 
 110   0.0000       1.246583        33.9212 
 111   0.0000       1.246612        33.9220 
 112   0.0000       1.290449        35.1149 
 113   0.0000       1.290450        35.1149 
 114   0.0000       1.301330        35.4110 
 115   0.0000       1.321580        35.9620 
 116   0.0000       1.345442        36.6113 
 117   0.0000       1.385118        37.6910 
 118   0.0000       1.385130        37.6913 
 119   0.0000       1.570398        42.7327 
 120   0.0000       1.581614        43.0379 
 121   0.0000       1.581626        43.0382 
 122   0.0000       1.588906        43.2363 
 123   0.0000       1.588912        43.2365 
 124   0.0000       1.611747        43.8579 
 125   0.0000       1.652810        44.9753 
 126   0.0000       1.652813        44.9753 
 127   0.0000       1.661818        45.2204 
 128   0.0000       1.675435        45.5909 
 129   0.0000       1.675571        45.5946 
 130   0.0000       1.675580        45.5949 
 131   0.0000       1.700852        46.2825 
 132   0.0000       1.701269        46.2939 
 133   0.0000       1.701273        46.2940 
 134   0.0000       1.716851        46.7179 
 135   0.0000       1.716865        46.7183 
 136   0.0000       1.747632        47.5555 
 137   0.0000       1.747641        47.5557 
 138   0.0000       1.782169        48.4953 
 139   0.0000       1.782174        48.4954 
 140   0.0000       1.793446        48.8022 
 141   0.0000       1.801147        49.0117 
 142   0.0000       1.838009        50.0148 
 143   0.0000       1.838030        50.0154 
 144   0.0000       1.846296        50.2403 
 145   0.0000       1.846300        50.2404 
 146   0.0000       1.916689        52.1558 
 147   0.0000       1.935928        52.6793 
 148   0.0000       1.957214        53.2585 
 149   0.0000       1.957217        53.2586 
 150   0.0000       1.959281        53.3147 
 151   0.0000       1.962962        53.4149 
 152   0.0000       1.962973        53.4152 
 153   0.0000       1.973599        53.7044 
 154   0.0000       1.976479        53.7827 
 155   0.0000       1.976488        53.7830 
 156   0.0000       1.981516        53.9198 
 157   0.0000       1.990946        54.1764 
 158   0.0000       1.990951        54.1765 
 159   0.0000       1.995150        54.2908 
 160   0.0000       2.000538        54.4374 
 161   0.0000       2.034404        55.3590 
 162   0.0000       2.037881        55.4536 
 163   0.0000       2.063134        56.1407 
 164   0.0000       2.074372        56.4465 
 165   0.0000       2.074403        56.4474 
 166   0.0000       2.086810        56.7850 
 167   0.0000       2.086839        56.7858 
 168   0.0000       2.088519        56.8315 
 169   0.0000       2.088548        56.8323 
 170   0.0000       2.118949        57.6595 
 171   0.0000       2.148237        58.4565 
 172   0.0000       2.148255        58.4570 
 173   0.0000       2.156034        58.6687 
 174   0.0000       2.167525        58.9814 
 175   0.0000       2.173850        59.1535 
 176   0.0000       2.173865        59.1539 
 177   0.0000       2.196735        59.7762 
 178   0.0000       2.196760        59.7769 
 179   0.0000       2.197355        59.7931 
 180   0.0000       2.228295        60.6350 
 181   0.0000       2.228316        60.6356 
 182   0.0000       2.248325        61.1800 
 183   0.0000       2.254009        61.3347 
 184   0.0000       2.254025        61.3351 
 185   0.0000       2.407013        65.4982 
 186   0.0000       2.433283        66.2130 
 187   0.0000       2.433355        66.2150 
 188   0.0000       2.538216        69.0684 
 189   0.0000       2.538240        69.0690 
 190   0.0000       2.646549        72.0163 
 191   0.0000       2.651352        72.1469 
 192   0.0000       2.740216        74.5651 
 193   0.0000       2.740221        74.5652 
 194   0.0000       3.064524        83.3899 
 195   0.0000       3.234517        88.0157 
 196   0.0000       3.234534        88.0161 
 197   0.0000       3.546930        96.5169 
 198   0.0000       7.272649       197.8988 
 199   0.0000       7.272676       197.8996 
 200   0.0000       7.364341       200.3939 
 201   0.0000      10.494372       285.5664 
 202   0.0000      10.496468       285.6234 
 203   0.0000      10.496476       285.6236 
 204   0.0000      10.505838       285.8784 
 205   0.0000      10.516449       286.1671 
 206   0.0000      10.516451       286.1672 
 207   0.0000      10.531589       286.5791 
 208   0.0000      10.531591       286.5791 
 209   0.0000      10.563846       287.4569 
 210   0.0000      10.563866       287.4574 
 211   0.0000      10.647875       289.7434 
 212   0.0000      10.910170       296.8808 
 213   0.0000      10.945789       297.8501 
 214   0.0000      11.038578       300.3750 
 215   0.0000      11.038587       300.3752 
 216   0.0000      13.926057       378.9473 
 217   0.0000      24.348177       662.5476 
 218   0.0000      24.694597       671.9742 
 219   0.0000      24.694740       671.9780 
 220   0.0000      24.854123       676.3151 
 221   0.0000      24.905243       677.7061 

                    ********************************
                    * MULLIKEN POPULATION ANALYSIS *
                    ********************************

-----------------------
MULLIKEN ATOMIC CHARGES
-----------------------
   0 P :    0.492596
   1 Cl:   -0.047599
   2 Cl:   -0.047582
   3 Cl:   -0.047582
   4 Cl:   -0.174916
   5 Cl:   -0.174916
Sum of atomic charges:   -0.0000000

--------------------------------
MULLIKEN REDUCED ORBITAL CHARGES
--------------------------------
  0 P s       :     5.293213  s :     5.293213
      pz      :     2.787653  p :     8.295266
      px      :     2.753810
      py      :     2.753803
      dz2     :     0.260595  d :     0.841130
      dxz     :     0.134444
      dyz     :     0.134436
      dx2y2   :     0.155820
      dxy     :     0.155836
      f0      :     0.018322  f :     0.077795
      f+1     :     0.012896
      f-1     :     0.012897
      f+2     :     0.005287
      f-2     :     0.005290
      f+3     :     0.014508
      f-3     :     0.008595
  1 Cls       :     5.932237  s :     5.932237
      pz      :     3.925124  p :    11.057017
      px      :     3.844701
      py      :     3.287193
      dz2     :     0.010477  d :     0.054388
      dxz     :     0.001148
      dyz     :     0.013600
      dx2y2   :     0.020002
      dxy     :     0.009162
      f0      :     0.000311  f :     0.003957
      f+1     :     0.000076
      f-1     :     0.001094
      f+2     :     0.000522
      f-2     :     0.000058
      f+3     :     0.000697
      f-3     :     0.001200
  2 Cls       :     5.932232  s :     5.932232
      pz      :     3.925108  p :    11.057006
      px      :     3.426602
      py      :     3.705296
      dz2     :     0.010474  d :     0.054387
      dxz     :     0.010486
      dyz     :     0.004261
      dx2y2   :     0.011871
      dxy     :     0.017294
      f0      :     0.000311  f :     0.003958
      f+1     :     0.000839
      f-1     :     0.000330
      f+2     :     0.000174
      f-2     :     0.000406
      f+3     :     0.000697
      f-3     :     0.001200
  3 Cls       :     5.932232  s :     5.932232
      pz      :     3.925108  p :    11.057006
      px      :     3.426602
      py      :     3.705296
      dz2     :     0.010474  d :     0.054387
      dxz     :     0.010486
      dyz     :     0.004261
      dx2y2   :     0.011871
      dxy     :     0.017294
      f0      :     0.000311  f :     0.003958
      f+1     :     0.000839
      f-1     :     0.000330
      f+2     :     0.000174
      f-2     :     0.000406
      f+3     :     0.000697
      f-3     :     0.001200
  4 Cls       :     5.944664  s :     5.944664
      pz      :     3.339536  p :    11.181905
      px      :     3.921180
      py      :     3.921189
      dz2     :     0.022553  d :     0.045262
      dxz     :     0.009201
      dyz     :     0.009204
      dx2y2   :     0.002152
      dxy     :     0.002152
      f0      :     0.001599  f :     0.003085
      f+1     :     0.000577
      f-1     :     0.000578
      f+2     :     0.000142
      f-2     :     0.000142
      f+3     :     0.000017
      f-3     :     0.000030
  5 Cls       :     5.944664  s :     5.944664
      pz      :     3.339536  p :    11.181905
      px      :     3.921180
      py      :     3.921189
      dz2     :     0.022553  d :     0.045262
      dxz     :     0.009201
      dyz     :     0.009204
      dx2y2   :     0.002152
      dxy     :     0.002152
      f0      :     0.001599  f :     0.003085
      f+1     :     0.000577
      f-1     :     0.000578
      f+2     :     0.000142
      f-2     :     0.000142
      f+3     :     0.000017
      f-3     :     0.000030


                     *******************************
                     * LOEWDIN POPULATION ANALYSIS *
                     *******************************

----------------------
LOEWDIN ATOMIC CHARGES
----------------------
   0 P :   -0.626463
   1 Cl:    0.187216
   2 Cl:    0.187261
   3 Cl:    0.187261
   4 Cl:    0.032362
   5 Cl:    0.032362

-------------------------------
LOEWDIN REDUCED ORBITAL CHARGES
-------------------------------
  0 P s       :     5.011018  s :     5.011018
      pz      :     2.944445  p :     8.754209
      px      :     2.904875
      py      :     2.904889
      dz2     :     0.578922  d :     1.604855
      dxz     :     0.197114
      dyz     :     0.197107
      dx2y2   :     0.315839
      dxy     :     0.315872
      f0      :     0.064572  f :     0.256382
      f+1     :     0.041184
      f-1     :     0.041187
      f+2     :     0.014061
      f-2     :     0.014068
      f+3     :     0.041453
      f-3     :     0.039856
  1 Cls       :     5.699782  s :     5.699782
      pz      :     3.883137  p :    11.020001
      px      :     3.799087
      py      :     3.337777
      dz2     :     0.016411  d :     0.085691
      dxz     :     0.001278
      dyz     :     0.020255
      dx2y2   :     0.037937
      dxy     :     0.009811
      f0      :     0.000482  f :     0.007309
      f+1     :     0.000089
      f-1     :     0.002031
      f+2     :     0.000977
      f-2     :     0.000067
      f+3     :     0.000869
      f-3     :     0.002795
  2 Cls       :     5.699762  s :     5.699762
      pz      :     3.883110  p :    11.019978
      px      :     3.453137
      py      :     3.683731
      dz2     :     0.016408  d :     0.085689
      dxz     :     0.015508
      dyz     :     0.006023
      dx2y2   :     0.016840
      dxy     :     0.030911
      f0      :     0.000482  f :     0.007310
      f+1     :     0.001545
      f-1     :     0.000574
      f+2     :     0.000294
      f-2     :     0.000750
      f+3     :     0.000869
      f-3     :     0.002795
  3 Cls       :     5.699762  s :     5.699762
      pz      :     3.883110  p :    11.019978
      px      :     3.453137
      py      :     3.683731
      dz2     :     0.016408  d :     0.085689
      dxz     :     0.015508
      dyz     :     0.006023
      dx2y2   :     0.016840
      dxy     :     0.030911
      f0      :     0.000482  f :     0.007310
      f+1     :     0.001545
      f-1     :     0.000574
      f+2     :     0.000294
      f-2     :     0.000750
      f+3     :     0.000869
      f-3     :     0.002795
  4 Cls       :     5.746097  s :     5.746097
      pz      :     3.365702  p :    11.143139
      px      :     3.888712
      py      :     3.888724
      dz2     :     0.041138  d :     0.072641
      dxz     :     0.012728
      dyz     :     0.012731
      dx2y2   :     0.003022
      dxy     :     0.003023
      f0      :     0.003547  f :     0.005761
      f+1     :     0.000883
      f-1     :     0.000883
      f+2     :     0.000179
      f-2     :     0.000179
      f+3     :     0.000026
      f-3     :     0.000063
  5 Cls       :     5.746097  s :     5.746097
      pz      :     3.365702  p :    11.143139
      px      :     3.888712
      py      :     3.888724
      dz2     :     0.041138  d :     0.072641
      dxz     :     0.012728
      dyz     :     0.012731
      dx2y2   :     0.003022
      dxy     :     0.003023
      f0      :     0.003547  f :     0.005761
      f+1     :     0.000883
      f-1     :     0.000883
      f+2     :     0.000179
      f-2     :     0.000179
      f+3     :     0.000026
      f-3     :     0.000063


                      *****************************
                      * MAYER POPULATION ANALYSIS *
                      *****************************

  NA   - Mulliken gross atomic population
  ZA   - Total nuclear charge
  QA   - Mulliken gross atomic charge
  VA   - Mayer's total valence
  BVA  - Mayer's bonded valence
  FA   - Mayer's free valence

  ATOM       NA         ZA         QA         VA         BVA        FA
  0 P     14.5074    15.0000     0.4926     5.5474     5.5474    -0.0000
  1 Cl    17.0476    17.0000    -0.0476     1.3549     1.3549    -0.0000
  2 Cl    17.0476    17.0000    -0.0476     1.3549     1.3549    -0.0000
  3 Cl    17.0476    17.0000    -0.0476     1.3549     1.3549    -0.0000
  4 Cl    17.1749    17.0000    -0.1749     1.1889     1.1889    -0.0000
  5 Cl    17.1749    17.0000    -0.1749     1.1889     1.1889    -0.0000

  Mayer bond orders larger than 0.100000
B(  0-P ,  1-Cl) :   1.1723 B(  0-P ,  2-Cl) :   1.1723 B(  0-P ,  3-Cl) :   1.1723 
B(  0-P ,  4-Cl) :   1.0153 B(  0-P ,  5-Cl) :   1.0153 

-------
TIMINGS
-------

Total SCF time: 0 days 0 hours 0 min 4 sec 

Total time                  ....       4.281 sec
Sum of individual times     ....       3.941 sec  ( 92.1%)

Fock matrix formation       ....       3.345 sec  ( 78.1%)
  Split-RI-J                ....       1.072 sec  ( 32.0% of F)
  XC integration            ....       2.274 sec  ( 68.0% of F)
    Basis function eval.    ....       0.723 sec  ( 31.8% of XC)
    Density eval.           ....       0.646 sec  ( 28.4% of XC)
    XC-Functional eval.     ....       0.105 sec  (  4.6% of XC)
    XC-Potential eval.      ....       0.641 sec  ( 28.2% of XC)
Diagonalization             ....       0.011 sec  (  0.3%)
Density matrix formation    ....       0.005 sec  (  0.1%)
Population analysis         ....       0.036 sec  (  0.8%)
Initial guess               ....       0.011 sec  (  0.3%)
Orbital Transformation      ....       0.000 sec  (  0.0%)
Orbital Orthonormalization  ....       0.007 sec  (  0.2%)
DIIS solution               ....       0.005 sec  (  0.1%)
SOSCF solution              ....       0.033 sec  (  0.8%)
Grid generation             ....       0.495 sec  ( 11.6%)

Maximum memory used throughout the entire SCF-calculation: 88.0 MB

-------------------------   --------------------
FINAL SINGLE POINT ENERGY     -2641.422787484936
-------------------------   --------------------

                                *** OPTIMIZATION RUN DONE ***

                            ***************************************
                            *     ORCA property calculations      *
                            ***************************************

                                    ---------------------
                                    Active property flags
                                    ---------------------
   (+) Dipole Moment


------------------------------------------------------------------------------
                       ORCA ELECTRIC PROPERTIES CALCULATION
------------------------------------------------------------------------------

Dipole Moment Calculation                       ... on
Quadrupole Moment Calculation                   ... off
Polarizability Calculation                      ... off
GBWName                                         ... PCl5_opt.gbw
Electron density                                ... PCl5_opt.scfp
The origin for moment calculation is the CENTER OF MASS  = ( 0.000000,  0.000000 -0.000000)

-------------
DIPOLE MOMENT
-------------
                                X             Y             Z
Electronic contribution:     -0.00000      -0.00018       0.00000
Nuclear contribution   :     -0.00000      -0.00000       0.00000
                        -----------------------------------------
Total Dipole Moment    :     -0.00000      -0.00018       0.00000
                        -----------------------------------------
Magnitude (a.u.)       :      0.00018
Magnitude (Debye)      :      0.00046



--------------------
Rotational spectrum 
--------------------
 
Rotational constants in cm-1:     0.037712     0.030637     0.030635 
Rotational constants in MHz :  1130.574982   918.468181   918.404525 

 Dipole components along the rotational axes: 
x,y,z [a.u.] :     0.000000    -0.000182    -0.000000 
x,y,z [Debye]:     0.000000    -0.000463    -0.000000 

 

Timings for individual modules:

Sum of individual times         ...       87.011 sec (=   1.450 min)
GTO integral calculation        ...        2.623 sec (=   0.044 min)   3.0 %
SCF iterations                  ...       54.559 sec (=   0.909 min)  62.7 %
SCF Gradient evaluation         ...       29.551 sec (=   0.493 min)  34.0 %
Geometry relaxation             ...        0.278 sec (=   0.005 min)   0.3 %
                             ****ORCA TERMINATED NORMALLY****
TOTAL RUN TIME: 0 days 0 hours 1 minutes 27 seconds 694 msec
