
                                 *****************
                                 * O   R   C   A *
                                 *****************

                                            #,                                       
                                            ###                                      
                                            ####                                     
                                            #####                                    
                                            ######                                   
                                           ########,                                 
                                     ,,################,,,,,                         
                               ,,#################################,,                 
                          ,,##########################################,,             
                       ,#########################################, ''#####,          
                    ,#############################################,,   '####,        
                  ,##################################################,,,,####,       
                ,###########''''           ''''###############################       
              ,#####''   ,,,,##########,,,,          '''####'''          '####       
            ,##' ,,,,###########################,,,                        '##       
           ' ,,###''''                  '''############,,,                           
         ,,##''                                '''############,,,,        ,,,,,,###''
      ,#''                                            '''#######################'''  
     '                                                          ''''####''''         
             ,#######,   #######,   ,#######,      ##                                
            ,#'     '#,  ##    ##  ,#'     '#,    #''#        ######   ,####,        
            ##       ##  ##   ,#'  ##            #'  '#       #        #'  '#        
            ##       ##  #######   ##           ,######,      #####,   #    #        
            '#,     ,#'  ##    ##  '#,     ,#' ,#      #,         ##   #,  ,#        
             '#######'   ##     ##  '#######'  #'      '#     #####' # '####'        



                  #######################################################
                  #                        -***-                        #
                  #          Department of theory and spectroscopy      #
                  #    Directorship and core code : Frank Neese         #
                  #        Max Planck Institute fuer Kohlenforschung    #
                  #                Kaiser Wilhelm Platz 1               #
                  #                 D-45470 Muelheim/Ruhr               #
                  #                      Germany                        #
                  #                                                     #
                  #                  All rights reserved                #
                  #                        -***-                        #
                  #######################################################



                         Program Version 5.0.4 -  RELEASE  -

 With contributions from (in alphabetic order):
   Daniel Aravena         : Magnetic Suceptibility
   Michael Atanasov       : Ab Initio Ligand Field Theory (pilot matlab implementation)
   Alexander A. Auer      : GIAO ZORA, VPT2 properties, NMR spectrum
   Ute Becker             : Parallelization
   Giovanni Bistoni       : ED, misc. LED, open-shell LED, HFLD
   Martin Brehm           : Molecular dynamics
   Dmytro Bykov           : SCF Hessian
   Vijay G. Chilkuri      : MRCI spin determinant printing, contributions to CSF-ICE
   Dipayan Datta          : RHF DLPNO-CCSD density
   Achintya Kumar Dutta   : EOM-CC, STEOM-CC
   Dmitry Ganyushin       : Spin-Orbit,Spin-Spin,Magnetic field MRCI
   Miquel Garcia          : C-PCM and meta-GGA Hessian, CC/C-PCM, Gaussian charge scheme
   Yang Guo               : DLPNO-NEVPT2, F12-NEVPT2, CIM, IAO-localization
   Andreas Hansen         : Spin unrestricted coupled pair/coupled cluster methods
   Benjamin Helmich-Paris : MC-RPA, TRAH-SCF, COSX integrals
   Lee Huntington         : MR-EOM, pCC
   Robert Izsak           : Overlap fitted RIJCOSX, COSX-SCS-MP3, EOM
   Marcus Kettner         : VPT2
   Christian Kollmar      : KDIIS, OOCD, Brueckner-CCSD(T), CCSD density, CASPT2, CASPT2-K
   Simone Kossmann        : Meta GGA functionals, TD-DFT gradient, OOMP2, MP2 Hessian
   Martin Krupicka        : Initial AUTO-CI
   Lucas Lang             : DCDCAS
   Marvin Lechner         : AUTO-CI (C++ implementation), FIC-MRCC
   Dagmar Lenk            : GEPOL surface, SMD
   Dimitrios Liakos       : Extrapolation schemes; Compound Job, initial MDCI parallelization
   Dimitrios Manganas     : Further ROCIS development; embedding schemes
   Dimitrios Pantazis     : SARC Basis sets
   Anastasios Papadopoulos: AUTO-CI, single reference methods and gradients
   Taras Petrenko         : DFT Hessian,TD-DFT gradient, ASA, ECA, R-Raman, ABS, FL, XAS/XES, NRVS
   Peter Pinski           : DLPNO-MP2, DLPNO-MP2 Gradient
   Christoph Reimann      : Effective Core Potentials
   Marius Retegan         : Local ZFS, SOC
   Christoph Riplinger    : Optimizer, TS searches, QM/MM, DLPNO-CCSD(T), (RO)-DLPNO pert. Triples
   Tobias Risthaus        : Range-separated hybrids, TD-DFT gradient, RPA, STAB
   Michael Roemelt        : Original ROCIS implementation
   Masaaki Saitow         : Open-shell DLPNO-CCSD energy and density
   Barbara Sandhoefer     : DKH picture change effects
   Avijit Sen             : IP-ROCIS
   Kantharuban Sivalingam : CASSCF convergence, NEVPT2, FIC-MRCI
   Bernardo de Souza      : ESD, SOC TD-DFT
   Georgi Stoychev        : AutoAux, RI-MP2 NMR, DLPNO-MP2 response
   Willem Van den Heuvel  : Paramagnetic NMR
   Boris Wezisla          : Elementary symmetry handling
   Frank Wennmohs         : Technical directorship


 We gratefully acknowledge several colleagues who have allowed us to
 interface, adapt or use parts of their codes:
   Stefan Grimme, W. Hujo, H. Kruse, P. Pracht,  : VdW corrections, initial TS optimization,
                  C. Bannwarth, S. Ehlert          DFT functionals, gCP, sTDA/sTD-DF
   Ed Valeev, F. Pavosevic, A. Kumar             : LibInt (2-el integral package), F12 methods
   Garnet Chan, S. Sharma, J. Yang, R. Olivares  : DMRG
   Ulf Ekstrom                                   : XCFun DFT Library
   Mihaly Kallay                                 : mrcc  (arbitrary order and MRCC methods)
   Jiri Pittner, Ondrej Demel                    : Mk-CCSD
   Frank Weinhold                                : gennbo (NPA and NBO analysis)
   Christopher J. Cramer and Donald G. Truhlar   : smd solvation model
   Lars Goerigk                                  : TD-DFT with DH, B97 family of functionals
   V. Asgeirsson, H. Jonsson                     : NEB implementation
   FAccTs GmbH                                   : IRC, NEB, NEB-TS, DLPNO-Multilevel, CI-OPT
                                                   MM, QMMM, 2- and 3-layer-ONIOM, Crystal-QMMM,
                                                   LR-CPCM, SF, NACMEs, symmetry and pop. for TD-DFT,
                                                   nearIR, NL-DFT gradient (VV10), updates on ESD,
                                                   ML-optimized integration grids
   S Lehtola, MJT Oliveira, MAL Marques          : LibXC Library
   Liviu Ungur et al                             : ANISO software


 Your calculation uses the libint2 library for the computation of 2-el integrals
 For citations please refer to: http://libint.valeyev.net

 Your ORCA version has been built with support for libXC version: 5.1.0
 For citations please refer to: https://tddft.org/programs/libxc/

 This ORCA versions uses:
   CBLAS   interface :  Fast vector & matrix operations
   LAPACKE interface :  Fast linear algebra routines
   Shared memory     :  Shared parallel matrices


================================================================================

----- Orbital basis set information -----
Your calculation utilizes the basis: def2-TZVP
   F. Weigend and R. Ahlrichs, Phys. Chem. Chem. Phys. 7, 3297 (2005).

----- AuxJ basis set information -----
Your calculation utilizes the auxiliary basis: def2/J
   F. Weigend, Phys. Chem. Chem. Phys. 8, 1057 (2006).

================================================================================
                                        WARNINGS
                       Please study these warnings very carefully!
================================================================================

WARNING: Old DensityContainer found on disk!
         Will remove this file - 
         If you want to keep old densities, please start your calculation with a different basename. 


INFO   : the flag for use of the SHARK integral package has been found!

================================================================================
                                       INPUT FILE
================================================================================
NAME = PF5_ts_sp.inp
|  1> ! PBE def2-TZVP
|  2> 
|  3> * xyz 0 1
|  4>   P      0.000000   -0.043956    0.000000
|  5>   F     -0.000000    1.503423    0.000000
|  6>   F      1.554077   -0.385519   -0.000000
|  7>   F     -1.554077   -0.385519   -0.000000
|  8>   F     -0.000000   -0.382414    1.555033
|  9>   F     -0.000000   -0.382414   -1.555033
| 10> *
| 11> 
| 12>                          ****END OF INPUT****
================================================================================

                       ****************************
                       * Single Point Calculation *
                       ****************************

---------------------------------
CARTESIAN COORDINATES (ANGSTROEM)
---------------------------------
  P      0.000000   -0.043956    0.000000
  F     -0.000000    1.503423    0.000000
  F      1.554077   -0.385519   -0.000000
  F     -1.554077   -0.385519   -0.000000
  F     -0.000000   -0.382414    1.555033
  F     -0.000000   -0.382414   -1.555033

----------------------------
CARTESIAN COORDINATES (A.U.)
----------------------------
  NO LB      ZA    FRAG     MASS         X           Y           Z
   0 P    15.0000    0    30.974    0.000000   -0.083065    0.000000
   1 F     9.0000    0    18.998   -0.000000    2.841058    0.000000
   2 F     9.0000    0    18.998    2.936780   -0.728525   -0.000000
   3 F     9.0000    0    18.998   -2.936780   -0.728525   -0.000000
   4 F     9.0000    0    18.998   -0.000000   -0.722658    2.938586
   5 F     9.0000    0    18.998   -0.000000   -0.722658   -2.938586

--------------------------------
INTERNAL COORDINATES (ANGSTROEM)
--------------------------------
 P      0   0   0     0.000000000000     0.00000000     0.00000000
 F      1   0   0     1.547379000000     0.00000000     0.00000000
 F      1   2   0     1.591169571384   102.39567466     0.00000000
 F      1   2   3     1.591169571384   102.39567466   180.00000000
 F      1   2   3     1.591440055061   102.27910454    90.00000000
 F      1   2   3     1.591440055061   102.27910454   270.00000000

---------------------------
INTERNAL COORDINATES (A.U.)
---------------------------
 P      0   0   0     0.000000000000     0.00000000     0.00000000
 F      1   0   0     2.924122535381     0.00000000     0.00000000
 F      1   2   0     3.006874722544   102.39567466     0.00000000
 F      1   2   3     3.006874722544   102.39567466   180.00000000
 F      1   2   3     3.007385862618   102.27910454    90.00000000
 F      1   2   3     3.007385862618   102.27910454   270.00000000

---------------------
BASIS SET INFORMATION
---------------------
There are 2 groups of distinct atoms

 Group   1 Type P   : 14s9p3d1f contracted to 5s5p2d1f pattern {73211/51111/21/1}
 Group   2 Type F   : 11s6p2d1f contracted to 5s3p2d1f pattern {62111/411/11/1}

Atom   0P    basis set group =>   1
Atom   1F    basis set group =>   2
Atom   2F    basis set group =>   2
Atom   3F    basis set group =>   2
Atom   4F    basis set group =>   2
Atom   5F    basis set group =>   2
---------------------------------
AUXILIARY/J BASIS SET INFORMATION
---------------------------------
There are 2 groups of distinct atoms

 Group   1 Type P   : 14s5p5d2f1g contracted to 8s4p3d1f1g pattern {71111111/2111/311/2/1}
 Group   2 Type F   : 12s5p4d2f1g contracted to 6s4p3d1f1g pattern {711111/2111/211/2/1}

Atom   0P    basis set group =>   1
Atom   1F    basis set group =>   2
Atom   2F    basis set group =>   2
Atom   3F    basis set group =>   2
Atom   4F    basis set group =>   2
Atom   5F    basis set group =>   2

Checking for AutoStart:
The File: PF5_ts_sp.gbw exists
Trying to determine its content:
     ... Fine, the file contains calculation information
     ... Fine, the calculation information was read
     ... Fine, the file contains a basis set
     ... Fine, the basis set was read
     ... Fine, the file contains a geometry
     ... Fine, the geometry was read
     ... Fine, the file contains a set of orbitals
     ... Fine, the orbitals can be read
     => possible old guess file was deleted
     => GBW file was renamed to GES file
     => GES file is set as startup file
     => Guess is set to MORead
     ... now leaving AutoStart

------------------------------------------------------------------------------
                           ORCA GTO INTEGRAL CALCULATION
                           -- RI-GTO INTEGRALS CHOSEN --
------------------------------------------------------------------------------
------------------------------------------------------------------------------
                   ___                                                        
                  /   \      - P O W E R E D   B Y -                         
                 /     \                                                     
                 |  |  |   _    _      __       _____    __    __             
                 |  |  |  | |  | |    /  \     |  _  \  |  |  /  |          
                  \  \/   | |  | |   /    \    | | | |  |  | /  /          
                 / \  \   | |__| |  /  /\  \   | |_| |  |  |/  /          
                |  |  |   |  __  | /  /__\  \  |    /   |      \           
                |  |  |   | |  | | |   __   |  |    \   |  |\   \          
                \     /   | |  | | |  |  |  |  | |\  \  |  | \   \       
                 \___/    |_|  |_| |__|  |__|  |_| \__\ |__|  \__/        
                                                                              
                      - O R C A' S   B I G   F R I E N D -                    
                                      &                                       
                       - I N T E G R A L  F E E D E R -                       
                                                                              
 v1 FN, 2020, v2 2021                                                         
------------------------------------------------------------------------------


Reading SHARK input file PF5_ts_sp.SHARKINP.tmp ... ok
----------------------
SHARK INTEGRAL PACKAGE
----------------------

Number of atoms                             ...      6
Number of basis functions                   ...    192
Number of shells                            ...     68
Maximum angular momentum                    ...      3
Integral batch strategy                     ... SHARK/LIBINT Hybrid
RI-J (if used) integral strategy            ... SPLIT-RIJ (Revised 2003 algorithm where possible)
Printlevel                                  ...      1
Contraction scheme used                     ... SEGMENTED contraction
Coulomb Range Separation                    ... NOT USED
Exchange Range Separation                   ... NOT USED
Finite Nucleus Model                        ... NOT USED
Auxiliary Coulomb fitting basis             ... AVAILABLE
   # of basis functions in Aux-J            ...    296
   # of shells in Aux-J                     ...     92
   Maximum angular momentum in Aux-J        ...      4
Auxiliary J/K fitting basis                 ... NOT available
Auxiliary Correlation fitting basis         ... NOT available
Auxiliary 'external' fitting basis          ... NOT available
Integral threshold                          ...     1.000000e-10
Primitive cut-off                           ...     1.000000e-11
Primitive pair pre-selection threshold      ...     1.000000e-11

Calculating pre-screening integrals         ... done (  0.1 sec) Dimension = 68
Organizing shell pair data                  ... done (  0.0 sec)
Shell pair information
Total number of shell pairs                 ...      2346
Shell pairs after pre-screening             ...      2111
Total number of primitive shell pairs       ...      8274
Primitive shell pairs kept                  ...      5432
          la=0 lb=0:    371 shell pairs
          la=1 lb=0:    559 shell pairs
          la=1 lb=1:    208 shell pairs
          la=2 lb=0:    312 shell pairs
          la=2 lb=1:    236 shell pairs
          la=2 lb=2:     72 shell pairs
          la=3 lb=0:    148 shell pairs
          la=3 lb=1:    116 shell pairs
          la=3 lb=2:     68 shell pairs
          la=3 lb=3:     21 shell pairs

Calculating one electron integrals          ... done (  0.0 sec)
Calculating RI/J V-Matrix + Cholesky decomp.... done (  0.0 sec)
Calculating Nuclear repulsion               ... done (  0.0 sec) ENN=    401.420151592375 Eh

SHARK setup successfully completed in   0.3 seconds

Maximum memory used throughout the entire GTOINT-calculation: 50.2 MB
-------------------------------------------------------------------------------
                                 ORCA SCF
-------------------------------------------------------------------------------

------------
SCF SETTINGS
------------
Hamiltonian:
 Density Functional     Method          .... DFT(GTOs)
 Exchange Functional    Exchange        .... PBE
   PBE kappa parameter   XKappa         ....  0.804000
   PBE mue parameter    XMuePBE         ....  0.219520
 Correlation Functional Correlation     .... PBE
   PBE beta parameter  CBetaPBE         ....  0.066725
 LDA part of GGA corr.  LDAOpt          .... PW91-LDA
 Gradients option       PostSCFGGA      .... off
   Density functional embedding theory  .... OFF
   NL short-range parameter             ....  6.400000
 RI-approximation to the Coulomb term is turned on
   Number of AuxJ basis functions       .... 296


General Settings:
 Integral files         IntName         .... PF5_ts_sp
 Hartree-Fock type      HFTyp           .... RHF
 Total Charge           Charge          ....    0
 Multiplicity           Mult            ....    1
 Number of Electrons    NEL             ....   60
 Basis Dimension        Dim             ....  192
 Nuclear Repulsion      ENuc            ....    401.4201515924 Eh

Convergence Acceleration:
 DIIS                   CNVDIIS         .... on
   Start iteration      DIISMaxIt       ....    12
   Startup error        DIISStart       ....  0.200000
   # of expansion vecs  DIISMaxEq       ....     5
   Bias factor          DIISBfac        ....   1.050
   Max. coefficient     DIISMaxC        ....  10.000
 Trust-Rad. Augm. Hess. CNVTRAH         .... auto
   Auto Start mean grad. ratio tolernc. ....  1.125000
   Auto Start start iteration           ....     1
   Auto Start num. interpolation iter.  ....    10
   Max. Number of Micro iterations      ....    16
   Max. Number of Macro iterations      .... Maxiter - #DIIS iter
   Number of Davidson start vectors     ....     2
   Converg. threshold I  (grad. norm)   ....   5.000e-05
   Converg. threshold II (energy diff.) ....   1.000e-06
   Grad. Scal. Fac. for Micro threshold ....   0.100
   Minimum threshold for Micro iter.    ....   0.010
   NR start threshold (gradient norm)   ....   0.001
   Initial trust radius                 ....   0.400
   Minimum AH scaling param. (alpha)    ....   1.000
   Maximum AH scaling param. (alpha)    .... 1000.000
   Orbital update algorithm             .... Taylor
   White noise on init. David. guess    .... on
   Maximum white noise                  ....   0.010
   Quad. conv. algorithm                .... NR
 SOSCF                  CNVSOSCF        .... on
   Start iteration      SOSCFMaxIt      ....   150
   Startup grad/error   SOSCFStart      ....  0.003300
 Level Shifting         CNVShift        .... on
   Level shift para.    LevelShift      ....    0.2500
   Turn off err/grad.   ShiftErr        ....    0.0010
 Zerner damping         CNVZerner       .... off
 Static damping         CNVDamp         .... on
   Fraction old density DampFac         ....    0.7000
   Max. Damping (<1)    DampMax         ....    0.9800
   Min. Damping (>=0)   DampMin         ....    0.0000
   Turn off err/grad.   DampErr         ....    0.1000
 Fernandez-Rico         CNVRico         .... off

SCF Procedure:
 Maximum # iterations   MaxIter         ....   125
 SCF integral mode      SCFMode         .... Direct
   Integral package                     .... SHARK and LIBINT hybrid scheme
 Reset frequency        DirectResetFreq ....    20
 Integral Threshold     Thresh          ....  1.000e-10 Eh
 Primitive CutOff       TCut            ....  1.000e-11 Eh

Convergence Tolerance:
 Convergence Check Mode ConvCheckMode   .... Total+1el-Energy
 Convergence forced     ConvForced      .... 0
 Energy Change          TolE            ....  1.000e-06 Eh
 1-El. energy change                    ....  1.000e-03 Eh
 Orbital Gradient       TolG            ....  5.000e-05
 Orbital Rotation angle TolX            ....  5.000e-05
 DIIS Error             TolErr          ....  1.000e-06


Diagonalization of the overlap matrix:
Smallest eigenvalue                        ... 2.810e-03
Time for diagonalization                   ...    0.004 sec
Threshold for overlap eigenvalues          ... 1.000e-08
Number of eigenvalues below threshold      ... 0
Time for construction of square roots      ...    0.004 sec
Total time needed                          ...    0.008 sec

---------------------
INITIAL GUESS: MOREAD
---------------------
Guess MOs are being read from file: PF5_ts_sp.ges
Input geometry compatible with but different from current geometry
Input basis set matches current basis set (good)
MOs were renormalized
MOs were reorthogonalized (Cholesky)
                      ------------------
                      INITIAL GUESS DONE (   0.0 sec)
                      ------------------
-------------------
DFT GRID GENERATION
-------------------

General Integration Accuracy     IntAcc      ... 4.388
Radial Grid Type                 RadialGrid  ... OptM3 with GC (2021)
Angular Grid (max. ang.)         AngularGrid ... 4 (Lebedev-302)
Angular grid pruning method      GridPruning ... 4 (adaptive)
Weight generation scheme         WeightScheme... Becke
Basis function cutoff            BFCut       ... 1.0000e-10
Integration weight cutoff        WCut        ... 1.0000e-14
Angular grids for H and He will be reduced by one unit
Partially contracted basis set               ... off
Rotationally invariant grid construction     ... off

Total number of grid points                  ...    37926
Total number of batches                      ...      596
Average number of points per batch           ...       63
Average number of grid points per atom       ...     6321
Time for grid setup =    0.378 sec

--------------
SCF ITERATIONS
--------------
ITER       Energy         Delta-E        Max-DP      RMS-DP      [F,P]     Damp
               ***  Starting incremental Fock matrix formation  ***
  0   -840.1995066817   0.000000000000 0.02156497  0.00071765  0.1094093 0.7000
  1   -840.2428857882  -0.043379106459 0.02198222  0.00065410  0.0836158 0.7000
                               ***Turning on DIIS***
  2   -840.2746052077  -0.031719419531 0.05942305  0.00166915  0.0602111 0.0000
  3   -840.3488273852  -0.074222177522 0.02117749  0.00019561  0.0070715 0.0000
  4   -840.3489369743  -0.000109589093 0.00851309  0.00008637  0.0083087 0.0000
                      *** Initiating the SOSCF procedure ***
                           *** Shutting down DIIS ***
                      *** Re-Reading the Fockian *** 
                      *** Removing any level shift *** 
ITER      Energy       Delta-E        Grad      Rot      Max-DP    RMS-DP
  5   -840.34921991  -0.0002829405  0.000500  0.000500  0.001315  0.000019
               *** Restarting incremental Fock matrix formation ***
  6   -840.34922720  -0.0000072901  0.000168  0.000433  0.000288  0.000010
  7   -840.34922674   0.0000004649  0.000291  0.000223  0.000226  0.000005
  8   -840.34922793  -0.0000011883  0.000039  0.000122  0.000258  0.000003
  9   -840.34922791   0.0000000148  0.000039  0.000041  0.000112  0.000001
                 **** Energy Check signals convergence ****
              ***Rediagonalizing the Fockian in SOSCF/NRSCF***

               *****************************************************
               *                     SUCCESS                       *
               *           SCF CONVERGED AFTER  10 CYCLES          *
               *****************************************************


----------------
TOTAL SCF ENERGY
----------------

Total Energy       :         -840.34922798 Eh          -22867.06503 eV

Components:
Nuclear Repulsion  :          401.42015159 Eh           10923.19765 eV
Electronic Energy  :        -1241.76937957 Eh          -33790.26268 eV
One Electron Energy:        -1966.92625485 Eh          -53522.78444 eV
Two Electron Energy:          725.15687527 Eh           19732.52176 eV

Virial components:
Potential Energy   :        -1678.49521832 Eh          -45674.17692 eV
Kinetic Energy     :          838.14599034 Eh           22807.11189 eV
Virial Ratio       :            2.00262870


DFT components:
N(Alpha)           :       30.000011203162 electrons
N(Beta)            :       30.000011203162 electrons
N(Total)           :       60.000022406324 electrons
E(X)               :      -72.973622154075 Eh       
E(C)               :       -2.170324956091 Eh       
E(XC)              :      -75.143947110166 Eh       
DFET-embed. en.    :        0.000000000000 Eh       

---------------
SCF CONVERGENCE
---------------

  Last Energy change         ...   -6.9099e-08  Tolerance :   1.0000e-06
  Last MAX-Density change    ...    6.0875e-05  Tolerance :   1.0000e-05
  Last RMS-Density change    ...    7.2865e-07  Tolerance :   1.0000e-06
  Last Orbital Gradient      ...    1.1785e-05  Tolerance :   5.0000e-05
  Last Orbital Rotation      ...    2.9465e-05  Tolerance :   5.0000e-05

             **** THE GBW FILE WAS UPDATED (PF5_ts_sp.gbw) ****
             **** DENSITY PF5_ts_sp.scfp WAS UPDATED ****
             **** ENERGY FILE WAS UPDATED (PF5_ts_sp.en.tmp) ****
             **** THE GBW FILE WAS UPDATED (PF5_ts_sp.gbw) ****
             **** DENSITY PF5_ts_sp.scfp WAS UPDATED ****
----------------
ORBITAL ENERGIES
----------------

  NO   OCC          E(Eh)            E(eV) 
   0   2.0000     -76.558854     -2083.2723 
   1   2.0000     -24.332551      -662.1224 
   2   2.0000     -24.301440      -661.2758 
   3   2.0000     -24.301428      -661.2755 
   4   2.0000     -24.301259      -661.2709 
   5   2.0000     -24.301247      -661.2705 
   6   2.0000      -6.530159      -177.6947 
   7   2.0000      -4.750217      -129.2600 
   8   2.0000      -4.746698      -129.1642 
   9   2.0000      -4.746685      -129.1639 
  10   2.0000      -1.224688       -33.3254 
  11   2.0000      -1.165359       -31.7110 
  12   2.0000      -1.148881       -31.2626 
  13   2.0000      -1.148664       -31.2567 
  14   2.0000      -1.107847       -30.1461 
  15   2.0000      -0.649321       -17.6689 
  16   2.0000      -0.547992       -14.9116 
  17   2.0000      -0.544386       -14.8135 
  18   2.0000      -0.544298       -14.8111 
  19   2.0000      -0.478247       -13.0138 
  20   2.0000      -0.464113       -12.6292 
  21   2.0000      -0.464103       -12.6289 
  22   2.0000      -0.449951       -12.2438 
  23   2.0000      -0.447251       -12.1703 
  24   2.0000      -0.404701       -11.0125 
  25   2.0000      -0.404575       -11.0090 
  26   2.0000      -0.392373       -10.6770 
  27   2.0000      -0.390750       -10.6328 
  28   2.0000      -0.390678       -10.6309 
  29   2.0000      -0.349350        -9.5063 
  30   0.0000      -0.087804        -2.3893 
  31   0.0000       0.022243         0.6053 
  32   0.0000       0.104934         2.8554 
  33   0.0000       0.105251         2.8640 
  34   0.0000       0.155500         4.2314 
  35   0.0000       0.171248         4.6599 
  36   0.0000       0.205364         5.5883 
  37   0.0000       0.205696         5.5973 
  38   0.0000       0.335114         9.1189 
  39   0.0000       0.362080         9.8527 
  40   0.0000       0.362586         9.8665 
  41   0.0000       0.383745        10.4422 
  42   0.0000       0.385871        10.5001 
  43   0.0000       0.437097        11.8940 
  44   0.0000       0.460316        12.5258 
  45   0.0000       0.460901        12.5417 
  46   0.0000       0.485306        13.2058 
  47   0.0000       0.496617        13.5136 
  48   0.0000       0.496765        13.5177 
  49   0.0000       0.569533        15.4978 
  50   0.0000       0.594954        16.1895 
  51   0.0000       0.595310        16.1992 
  52   0.0000       0.669671        18.2227 
  53   0.0000       0.712630        19.3916 
  54   0.0000       0.715808        19.4781 
  55   0.0000       0.727165        19.7872 
  56   0.0000       0.727632        19.7999 
  57   0.0000       0.742534        20.2054 
  58   0.0000       0.770623        20.9697 
  59   0.0000       0.894780        24.3482 
  60   0.0000       0.894880        24.3509 
  61   0.0000       0.923696        25.1351 
  62   0.0000       0.976193        26.5636 
  63   0.0000       0.979567        26.6554 
  64   0.0000       1.136162        30.9165 
  65   0.0000       1.137012        30.9397 
  66   0.0000       1.140594        31.0371 
  67   0.0000       1.154139        31.4057 
  68   0.0000       1.244822        33.8733 
  69   0.0000       1.245536        33.8927 
  70   0.0000       1.308299        35.6006 
  71   0.0000       1.396236        37.9935 
  72   0.0000       1.396946        38.0128 
  73   0.0000       1.426687        38.8221 
  74   0.0000       1.550479        42.1907 
  75   0.0000       1.762045        47.9477 
  76   0.0000       1.799572        48.9688 
  77   0.0000       1.827688        49.7339 
  78   0.0000       1.828457        49.7548 
  79   0.0000       1.853996        50.4498 
  80   0.0000       1.869432        50.8698 
  81   0.0000       1.869994        50.8851 
  82   0.0000       1.899645        51.6920 
  83   0.0000       2.089447        56.8567 
  84   0.0000       2.089584        56.8605 
  85   0.0000       2.090677        56.8902 
  86   0.0000       2.091174        56.9037 
  87   0.0000       2.171931        59.1013 
  88   0.0000       2.201180        59.8971 
  89   0.0000       2.342728        63.7489 
  90   0.0000       2.369808        64.4857 
  91   0.0000       2.370479        64.5040 
  92   0.0000       2.427057        66.0436 
  93   0.0000       2.428141        66.0731 
  94   0.0000       2.464584        67.0647 
  95   0.0000       2.481720        67.5310 
  96   0.0000       2.529139        68.8214 
  97   0.0000       2.539572        69.1053 
  98   0.0000       2.540044        69.1181 
  99   0.0000       2.588317        70.4317 
 100   0.0000       2.605248        70.8924 
 101   0.0000       2.643837        71.9425 
 102   0.0000       2.644104        71.9497 
 103   0.0000       3.086432        83.9861 
 104   0.0000       3.087617        84.0183 
 105   0.0000       3.088740        84.0489 
 106   0.0000       3.201822        87.1260 
 107   0.0000       3.204089        87.1877 
 108   0.0000       3.204258        87.1923 
 109   0.0000       3.292020        89.5804 
 110   0.0000       3.367390        91.6313 
 111   0.0000       3.368067        91.6498 
 112   0.0000       3.400876        92.5425 
 113   0.0000       3.406687        92.7007 
 114   0.0000       3.579259        97.3966 
 115   0.0000       3.641407        99.0877 
 116   0.0000       3.699770       100.6759 
 117   0.0000       3.700015       100.6825 
 118   0.0000       3.878823       105.5482 
 119   0.0000       4.048205       110.1572 
 120   0.0000       4.106543       111.7447 
 121   0.0000       4.383715       119.2869 
 122   0.0000       4.388182       119.4085 
 123   0.0000       6.368261       173.2892 
 124   0.0000       6.368363       173.2920 
 125   0.0000       6.412437       174.4913 
 126   0.0000       6.616462       180.0431 
 127   0.0000       6.624579       180.2640 
 128   0.0000       6.628729       180.3769 
 129   0.0000       6.642015       180.7384 
 130   0.0000       6.642038       180.7390 
 131   0.0000       6.644996       180.8195 
 132   0.0000       6.650380       180.9660 
 133   0.0000       6.650385       180.9662 
 134   0.0000       6.671615       181.5439 
 135   0.0000       6.672004       181.5544 
 136   0.0000       6.677894       181.7147 
 137   0.0000       6.678098       181.7203 
 138   0.0000       6.678113       181.7207 
 139   0.0000       6.680436       181.7839 
 140   0.0000       6.680578       181.7878 
 141   0.0000       6.680861       181.7955 
 142   0.0000       6.680922       181.7971 
 143   0.0000       6.684434       181.8927 
 144   0.0000       6.700770       182.3372 
 145   0.0000       6.702337       182.3799 
 146   0.0000       6.719752       182.8537 
 147   0.0000       6.720158       182.8648 
 148   0.0000       6.720182       182.8654 
 149   0.0000       6.730654       183.1504 
 150   0.0000       6.817898       185.5244 
 151   0.0000       6.859840       186.6657 
 152   0.0000       6.863564       186.7671 
 153   0.0000       6.899138       187.7351 
 154   0.0000       6.899570       187.7468 
 155   0.0000       6.959645       189.3816 
 156   0.0000       6.980378       189.9457 
 157   0.0000       6.980534       189.9500 
 158   0.0000       7.732886       210.4225 
 159   0.0000       7.782403       211.7700 
 160   0.0000       7.782913       211.7838 
 161   0.0000       8.012898       218.0420 
 162   0.0000       8.056190       219.2201 
 163   0.0000       8.056367       219.2249 
 164   0.0000       8.063191       219.4106 
 165   0.0000       8.084186       219.9819 
 166   0.0000       8.163122       222.1298 
 167   0.0000       8.163263       222.1337 
 168   0.0000       8.179081       222.5641 
 169   0.0000       8.209006       223.3784 
 170   0.0000       8.235230       224.0920 
 171   0.0000       8.283282       225.3996 
 172   0.0000       8.374587       227.8841 
 173   0.0000       8.376816       227.9447 
 174   0.0000       8.389150       228.2804 
 175   0.0000       8.470413       230.4916 
 176   0.0000       8.471227       230.5138 
 177   0.0000       8.493273       231.1137 
 178   0.0000       8.506434       231.4718 
 179   0.0000       8.584734       233.6025 
 180   0.0000       8.601748       234.0655 
 181   0.0000       8.613473       234.3845 
 182   0.0000       8.614096       234.4015 
 183   0.0000       8.731853       237.6058 
 184   0.0000       8.964280       243.9304 
 185   0.0000       8.965916       243.9750 
 186   0.0000      15.518782       422.2875 
 187   0.0000      56.250562      1530.6556 
 188   0.0000      56.262291      1530.9748 
 189   0.0000      56.518990      1537.9599 
 190   0.0000      56.521259      1538.0217 
 191   0.0000      56.621419      1540.7471 

                    ********************************
                    * MULLIKEN POPULATION ANALYSIS *
                    ********************************

-----------------------
MULLIKEN ATOMIC CHARGES
-----------------------
   0 P :    0.949279
   1 F :   -0.156240
   2 F :   -0.198020
   3 F :   -0.198020
   4 F :   -0.198500
   5 F :   -0.198500
Sum of atomic charges:   -0.0000000

--------------------------------
MULLIKEN REDUCED ORBITAL CHARGES
--------------------------------
  0 P s       :     4.954525  s :     4.954525
      pz      :     2.620869  p :     7.840381
      px      :     2.620591
      py      :     2.598921
      dz2     :     0.240129  d :     1.011390
      dxz     :     0.194984
      dyz     :     0.187578
      dx2y2   :     0.201116
      dxy     :     0.187583
      f0      :     0.055630  f :     0.244425
      f+1     :     0.042732
      f-1     :     0.035904
      f+2     :     0.030084
      f-2     :     0.005283
      f+3     :     0.043044
      f-3     :     0.031748
  1 F s       :     3.896291  s :     3.896291
      pz      :     1.856690  p :     5.245212
      px      :     1.856421
      py      :     1.532102
      dz2     :     0.001758  d :     0.014245
      dxz     :     0.000062
      dyz     :     0.003716
      dx2y2   :     0.004990
      dxy     :     0.003719
      f0      :     0.000048  f :     0.000492
      f+1     :     0.000008
      f-1     :     0.000089
      f+2     :     0.000080
      f-2     :     0.000004
      f+3     :     0.000119
      f-3     :     0.000144
  2 F s       :     3.905845  s :     3.905845
      pz      :     1.899225  p :     5.278838
      px      :     1.547904
      py      :     1.831709
      dz2     :     0.001938  d :     0.012901
      dxz     :     0.002880
      dyz     :     0.000254
      dx2y2   :     0.004326
      dxy     :     0.003504
      f0      :     0.000043  f :     0.000436
      f+1     :     0.000097
      f-1     :     0.000013
      f+2     :     0.000054
      f-2     :     0.000014
      f+3     :     0.000110
      f-3     :     0.000104
  3 F s       :     3.905845  s :     3.905845
      pz      :     1.899225  p :     5.278838
      px      :     1.547904
      py      :     1.831709
      dz2     :     0.001938  d :     0.012901
      dxz     :     0.002880
      dyz     :     0.000254
      dx2y2   :     0.004326
      dxy     :     0.003504
      f0      :     0.000043  f :     0.000436
      f+1     :     0.000097
      f-1     :     0.000013
      f+2     :     0.000054
      f-2     :     0.000014
      f+3     :     0.000110
      f-3     :     0.000104
  4 F s       :     3.905926  s :     3.905926
      pz      :     1.547881  p :     5.279248
      px      :     1.899197
      py      :     1.832170
      dz2     :     0.005832  d :     0.012890
      dxz     :     0.002880
      dyz     :     0.003495
      dx2y2   :     0.000432
      dxy     :     0.000252
      f0      :     0.000184  f :     0.000435
      f+1     :     0.000094
      f-1     :     0.000115
      f+2     :     0.000023
      f-2     :     0.000014
      f+3     :     0.000003
      f-3     :     0.000002
  5 F s       :     3.905926  s :     3.905926
      pz      :     1.547881  p :     5.279248
      px      :     1.899197
      py      :     1.832170
      dz2     :     0.005832  d :     0.012890
      dxz     :     0.002880
      dyz     :     0.003495
      dx2y2   :     0.000432
      dxy     :     0.000252
      f0      :     0.000184  f :     0.000435
      f+1     :     0.000094
      f-1     :     0.000115
      f+2     :     0.000023
      f-2     :     0.000014
      f+3     :     0.000003
      f-3     :     0.000002


                     *******************************
                     * LOEWDIN POPULATION ANALYSIS *
                     *******************************

----------------------
LOEWDIN ATOMIC CHARGES
----------------------
   0 P :   -0.059834
   1 F :    0.063159
   2 F :   -0.000620
   3 F :   -0.000620
   4 F :   -0.001043
   5 F :   -0.001043

-------------------------------
LOEWDIN REDUCED ORBITAL CHARGES
-------------------------------
  0 P s       :     4.637892  s :     4.637892
      pz      :     2.672607  p :     7.977492
      px      :     2.672438
      py      :     2.632446
      dz2     :     0.500943  d :     1.749543
      dxz     :     0.264862
      dyz     :     0.283000
      dx2y2   :     0.417325
      dxy     :     0.283413
      f0      :     0.164769  f :     0.694907
      f+1     :     0.123264
      f-1     :     0.103898
      f+2     :     0.076642
      f-2     :     0.011154
      f+3     :     0.118215
      f-3     :     0.096964
  1 F s       :     3.673286  s :     3.673286
      pz      :     1.801579  p :     5.240644
      px      :     1.801291
      py      :     1.637774
      dz2     :     0.003700  d :     0.022116
      dxz     :     0.000076
      dyz     :     0.003835
      dx2y2   :     0.010673
      dxy     :     0.003832
      f0      :     0.000058  f :     0.000794
      f+1     :     0.000011
      f-1     :     0.000182
      f+2     :     0.000098
      f-2     :     0.000008
      f+3     :     0.000146
      f-3     :     0.000292
  2 F s       :     3.697422  s :     3.697422
      pz      :     1.854153  p :     5.280737
      px      :     1.636228
      py      :     1.790357
      dz2     :     0.003831  d :     0.021685
      dxz     :     0.003966
      dyz     :     0.000297
      dx2y2   :     0.009217
      dxy     :     0.004374
      f0      :     0.000065  f :     0.000776
      f+1     :     0.000176
      f-1     :     0.000018
      f+2     :     0.000090
      f-2     :     0.000024
      f+3     :     0.000234
      f-3     :     0.000170
  3 F s       :     3.697422  s :     3.697422
      pz      :     1.854153  p :     5.280737
      px      :     1.636228
      py      :     1.790357
      dz2     :     0.003831  d :     0.021685
      dxz     :     0.003966
      dyz     :     0.000297
      dx2y2   :     0.009217
      dxy     :     0.004374
      f0      :     0.000065  f :     0.000776
      f+1     :     0.000176
      f-1     :     0.000018
      f+2     :     0.000090
      f-2     :     0.000024
      f+3     :     0.000234
      f-3     :     0.000170
  4 F s       :     3.697535  s :     3.697535
      pz      :     1.636158  p :     5.281064
      px      :     1.854153
      py      :     1.790753
      dz2     :     0.012463  d :     0.021669
      dxz     :     0.003963
      dyz     :     0.004355
      dx2y2   :     0.000594
      dxy     :     0.000294
      f0      :     0.000374  f :     0.000775
      f+1     :     0.000150
      f-1     :     0.000184
      f+2     :     0.000036
      f-2     :     0.000023
      f+3     :     0.000005
      f-3     :     0.000003
  5 F s       :     3.697535  s :     3.697535
      pz      :     1.636158  p :     5.281064
      px      :     1.854153
      py      :     1.790753
      dz2     :     0.012463  d :     0.021669
      dxz     :     0.003963
      dyz     :     0.004355
      dx2y2   :     0.000594
      dxy     :     0.000294
      f0      :     0.000374  f :     0.000775
      f+1     :     0.000150
      f-1     :     0.000184
      f+2     :     0.000036
      f-2     :     0.000023
      f+3     :     0.000005
      f-3     :     0.000003


                      *****************************
                      * MAYER POPULATION ANALYSIS *
                      *****************************

  NA   - Mulliken gross atomic population
  ZA   - Total nuclear charge
  QA   - Mulliken gross atomic charge
  VA   - Mayer's total valence
  BVA  - Mayer's bonded valence
  FA   - Mayer's free valence

  ATOM       NA         ZA         QA         VA         BVA        FA
  0 P     14.0507    15.0000     0.9493     5.9702     5.9702    -0.0000
  1 F      9.1562     9.0000    -0.1562     1.2723     1.2723     0.0000
  2 F      9.1980     9.0000    -0.1980     1.2139     1.2139     0.0000
  3 F      9.1980     9.0000    -0.1980     1.2139     1.2139     0.0000
  4 F      9.1985     9.0000    -0.1985     1.2137     1.2137     0.0000
  5 F      9.1985     9.0000    -0.1985     1.2137     1.2137     0.0000

  Mayer bond orders larger than 0.100000
B(  0-P ,  1-F ) :   1.2333 B(  0-P ,  2-F ) :   1.1843 B(  0-P ,  3-F ) :   1.1843 
B(  0-P ,  4-F ) :   1.1842 B(  0-P ,  5-F ) :   1.1842 

-------
TIMINGS
-------

Total SCF time: 0 days 0 hours 0 min 8 sec 

Total time                  ....       8.741 sec
Sum of individual times     ....       8.495 sec  ( 97.2%)

Fock matrix formation       ....       7.911 sec  ( 90.5%)
  Split-RI-J                ....       2.314 sec  ( 29.3% of F)
  XC integration            ....       5.520 sec  ( 69.8% of F)
    Basis function eval.    ....       1.674 sec  ( 30.3% of XC)
    Density eval.           ....       1.616 sec  ( 29.3% of XC)
    XC-Functional eval.     ....       0.272 sec  (  4.9% of XC)
    XC-Potential eval.      ....       1.542 sec  ( 27.9% of XC)
Diagonalization             ....       0.053 sec  (  0.6%)
Density matrix formation    ....       0.007 sec  (  0.1%)
Population analysis         ....       0.031 sec  (  0.4%)
Initial guess               ....       0.006 sec  (  0.1%)
Orbital Transformation      ....       0.000 sec  (  0.0%)
Orbital Orthonormalization  ....       0.003 sec  (  0.0%)
DIIS solution               ....       0.056 sec  (  0.6%)
SOSCF solution              ....       0.053 sec  (  0.6%)
Grid generation             ....       0.378 sec  (  4.3%)

Maximum memory used throughout the entire SCF-calculation: 62.3 MB

-------------------------   --------------------
FINAL SINGLE POINT ENERGY      -840.349227982580
-------------------------   --------------------


                            ***************************************
                            *     ORCA property calculations      *
                            ***************************************

                                    ---------------------
                                    Active property flags
                                    ---------------------
   (+) Dipole Moment


------------------------------------------------------------------------------
                       ORCA ELECTRIC PROPERTIES CALCULATION
------------------------------------------------------------------------------

Dipole Moment Calculation                       ... on
Quadrupole Moment Calculation                   ... off
Polarizability Calculation                      ... off
GBWName                                         ... PF5_ts_sp.gbw
Electron density                                ... PF5_ts_sp.scfp
The origin for moment calculation is the CENTER OF MASS  = ( 0.000000, -0.029672  0.000000)

-------------
DIPOLE MOMENT
-------------
                                X             Y             Z
Electronic contribution:      0.00000       0.02859      -0.00000
Nuclear contribution   :      0.00000      -0.01744       0.00000
                        -----------------------------------------
Total Dipole Moment    :      0.00000       0.01115      -0.00000
                        -----------------------------------------
Magnitude (a.u.)       :      0.01115
Magnitude (Debye)      :      0.02835



--------------------
Rotational spectrum 
--------------------
 
Rotational constants in cm-1:     0.115511     0.115422     0.091795 
Rotational constants in MHz :  3462.937096  3460.259362  2751.930771 

 Dipole components along the rotational axes: 
x,y,z [a.u.] :    -0.000000     0.000000     0.011153 
x,y,z [Debye]:    -0.000000     0.000000     0.028349 

 

Timings for individual modules:

Sum of individual times         ...        9.085 sec (=   0.151 min)
GTO integral calculation        ...        0.305 sec (=   0.005 min)   3.4 %
SCF iterations                  ...        8.780 sec (=   0.146 min)  96.6 %
                             ****ORCA TERMINATED NORMALLY****
TOTAL RUN TIME: 0 days 0 hours 0 minutes 9 seconds 312 msec
