
                                 *****************
                                 * O   R   C   A *
                                 *****************

                                            #,                                       
                                            ###                                      
                                            ####                                     
                                            #####                                    
                                            ######                                   
                                           ########,                                 
                                     ,,################,,,,,                         
                               ,,#################################,,                 
                          ,,##########################################,,             
                       ,#########################################, ''#####,          
                    ,#############################################,,   '####,        
                  ,##################################################,,,,####,       
                ,###########''''           ''''###############################       
              ,#####''   ,,,,##########,,,,          '''####'''          '####       
            ,##' ,,,,###########################,,,                        '##       
           ' ,,###''''                  '''############,,,                           
         ,,##''                                '''############,,,,        ,,,,,,###''
      ,#''                                            '''#######################'''  
     '                                                          ''''####''''         
             ,#######,   #######,   ,#######,      ##                                
            ,#'     '#,  ##    ##  ,#'     '#,    #''#        ######   ,####,        
            ##       ##  ##   ,#'  ##            #'  '#       #        #'  '#        
            ##       ##  #######   ##           ,######,      #####,   #    #        
            '#,     ,#'  ##    ##  '#,     ,#' ,#      #,         ##   #,  ,#        
             '#######'   ##     ##  '#######'  #'      '#     #####' # '####'        



                  #######################################################
                  #                        -***-                        #
                  #          Department of theory and spectroscopy      #
                  #    Directorship and core code : Frank Neese         #
                  #        Max Planck Institute fuer Kohlenforschung    #
                  #                Kaiser Wilhelm Platz 1               #
                  #                 D-45470 Muelheim/Ruhr               #
                  #                      Germany                        #
                  #                                                     #
                  #                  All rights reserved                #
                  #                        -***-                        #
                  #######################################################



                         Program Version 5.0.4 -  RELEASE  -

 With contributions from (in alphabetic order):
   Daniel Aravena         : Magnetic Suceptibility
   Michael Atanasov       : Ab Initio Ligand Field Theory (pilot matlab implementation)
   Alexander A. Auer      : GIAO ZORA, VPT2 properties, NMR spectrum
   Ute Becker             : Parallelization
   Giovanni Bistoni       : ED, misc. LED, open-shell LED, HFLD
   Martin Brehm           : Molecular dynamics
   Dmytro Bykov           : SCF Hessian
   Vijay G. Chilkuri      : MRCI spin determinant printing, contributions to CSF-ICE
   Dipayan Datta          : RHF DLPNO-CCSD density
   Achintya Kumar Dutta   : EOM-CC, STEOM-CC
   Dmitry Ganyushin       : Spin-Orbit,Spin-Spin,Magnetic field MRCI
   Miquel Garcia          : C-PCM and meta-GGA Hessian, CC/C-PCM, Gaussian charge scheme
   Yang Guo               : DLPNO-NEVPT2, F12-NEVPT2, CIM, IAO-localization
   Andreas Hansen         : Spin unrestricted coupled pair/coupled cluster methods
   Benjamin Helmich-Paris : MC-RPA, TRAH-SCF, COSX integrals
   Lee Huntington         : MR-EOM, pCC
   Robert Izsak           : Overlap fitted RIJCOSX, COSX-SCS-MP3, EOM
   Marcus Kettner         : VPT2
   Christian Kollmar      : KDIIS, OOCD, Brueckner-CCSD(T), CCSD density, CASPT2, CASPT2-K
   Simone Kossmann        : Meta GGA functionals, TD-DFT gradient, OOMP2, MP2 Hessian
   Martin Krupicka        : Initial AUTO-CI
   Lucas Lang             : DCDCAS
   Marvin Lechner         : AUTO-CI (C++ implementation), FIC-MRCC
   Dagmar Lenk            : GEPOL surface, SMD
   Dimitrios Liakos       : Extrapolation schemes; Compound Job, initial MDCI parallelization
   Dimitrios Manganas     : Further ROCIS development; embedding schemes
   Dimitrios Pantazis     : SARC Basis sets
   Anastasios Papadopoulos: AUTO-CI, single reference methods and gradients
   Taras Petrenko         : DFT Hessian,TD-DFT gradient, ASA, ECA, R-Raman, ABS, FL, XAS/XES, NRVS
   Peter Pinski           : DLPNO-MP2, DLPNO-MP2 Gradient
   Christoph Reimann      : Effective Core Potentials
   Marius Retegan         : Local ZFS, SOC
   Christoph Riplinger    : Optimizer, TS searches, QM/MM, DLPNO-CCSD(T), (RO)-DLPNO pert. Triples
   Tobias Risthaus        : Range-separated hybrids, TD-DFT gradient, RPA, STAB
   Michael Roemelt        : Original ROCIS implementation
   Masaaki Saitow         : Open-shell DLPNO-CCSD energy and density
   Barbara Sandhoefer     : DKH picture change effects
   Avijit Sen             : IP-ROCIS
   Kantharuban Sivalingam : CASSCF convergence, NEVPT2, FIC-MRCI
   Bernardo de Souza      : ESD, SOC TD-DFT
   Georgi Stoychev        : AutoAux, RI-MP2 NMR, DLPNO-MP2 response
   Willem Van den Heuvel  : Paramagnetic NMR
   Boris Wezisla          : Elementary symmetry handling
   Frank Wennmohs         : Technical directorship


 We gratefully acknowledge several colleagues who have allowed us to
 interface, adapt or use parts of their codes:
   Stefan Grimme, W. Hujo, H. Kruse, P. Pracht,  : VdW corrections, initial TS optimization,
                  C. Bannwarth, S. Ehlert          DFT functionals, gCP, sTDA/sTD-DF
   Ed Valeev, F. Pavosevic, A. Kumar             : LibInt (2-el integral package), F12 methods
   Garnet Chan, S. Sharma, J. Yang, R. Olivares  : DMRG
   Ulf Ekstrom                                   : XCFun DFT Library
   Mihaly Kallay                                 : mrcc  (arbitrary order and MRCC methods)
   Jiri Pittner, Ondrej Demel                    : Mk-CCSD
   Frank Weinhold                                : gennbo (NPA and NBO analysis)
   Christopher J. Cramer and Donald G. Truhlar   : smd solvation model
   Lars Goerigk                                  : TD-DFT with DH, B97 family of functionals
   V. Asgeirsson, H. Jonsson                     : NEB implementation
   FAccTs GmbH                                   : IRC, NEB, NEB-TS, DLPNO-Multilevel, CI-OPT
                                                   MM, QMMM, 2- and 3-layer-ONIOM, Crystal-QMMM,
                                                   LR-CPCM, SF, NACMEs, symmetry and pop. for TD-DFT,
                                                   nearIR, NL-DFT gradient (VV10), updates on ESD,
                                                   ML-optimized integration grids
   S Lehtola, MJT Oliveira, MAL Marques          : LibXC Library
   Liviu Ungur et al                             : ANISO software


 Your calculation uses the libint2 library for the computation of 2-el integrals
 For citations please refer to: http://libint.valeyev.net

 Your ORCA version has been built with support for libXC version: 5.1.0
 For citations please refer to: https://tddft.org/programs/libxc/

 This ORCA versions uses:
   CBLAS   interface :  Fast vector & matrix operations
   LAPACKE interface :  Fast linear algebra routines
   Shared memory     :  Shared parallel matrices


================================================================================

----- Orbital basis set information -----
Your calculation utilizes the basis: def2-TZVP
   F. Weigend and R. Ahlrichs, Phys. Chem. Chem. Phys. 7, 3297 (2005).

----- AuxJ basis set information -----
Your calculation utilizes the auxiliary basis: def2/J
   F. Weigend, Phys. Chem. Chem. Phys. 8, 1057 (2006).

================================================================================
                                        WARNINGS
                       Please study these warnings very carefully!
================================================================================


INFO   : the flag for use of the SHARK integral package has been found!

================================================================================
                                       INPUT FILE
================================================================================
NAME = AsF5_ts_guess.inp
|  1> ! PBE def2-TZVP Freq
|  2> 
|  3> * xyz 0 1
|  4> As  0.0000  0.0000  0.0000  # Arsenic (As)
|  5> F  0.0000  1.7190  0.0000  # Equatorial Fluorine (F1)
|  6> F  1.6357 -0.4384  0.0000  # Equatorial Fluorine (F2)
|  7> F -1.6357 -0.4384  0.0000  # Equatorial Fluorine (F3)
|  8> F  0.0000  0.4384  1.6357  # Axial Fluorine (F4)
|  9> F  0.0000  0.4384 -1.6357  # Axial Fluorine (F5)
| 10> *
| 11> 
| 12>                          ****END OF INPUT****
================================================================================

                       ****************************
                       * Single Point Calculation *
                       ****************************

---------------------------------
CARTESIAN COORDINATES (ANGSTROEM)
---------------------------------
  As     0.000000    0.000000    0.000000
  F      0.000000    1.719000    0.000000
  F      1.635700   -0.438400    0.000000
  F     -1.635700   -0.438400    0.000000
  F      0.000000    0.438400    1.635700
  F      0.000000    0.438400   -1.635700

----------------------------
CARTESIAN COORDINATES (A.U.)
----------------------------
  NO LB      ZA    FRAG     MASS         X           Y           Z
   0 As   33.0000    0    74.920    0.000000    0.000000    0.000000
   1 F     9.0000    0    18.998    0.000000    3.248439    0.000000
   2 F     9.0000    0    18.998    3.091025   -0.828456    0.000000
   3 F     9.0000    0    18.998   -3.091025   -0.828456    0.000000
   4 F     9.0000    0    18.998    0.000000    0.828456    3.091025
   5 F     9.0000    0    18.998    0.000000    0.828456   -3.091025

--------------------------------
INTERNAL COORDINATES (ANGSTROEM)
--------------------------------
 As     0   0   0     0.000000000000     0.00000000     0.00000000
 F      1   0   0     1.719000000000     0.00000000     0.00000000
 F      1   2   0     1.693431147109   105.00377488     0.00000000
 F      1   2   3     1.693431147109   105.00377488   180.00000000
 F      1   2   3     1.693431147109    74.99622512    90.00000000
 F      1   2   3     1.693431147109    74.99622512   270.00000000

---------------------------
INTERNAL COORDINATES (A.U.)
---------------------------
 As     0   0   0     0.000000000000     0.00000000     0.00000000
 F      1   0   0     3.248439224211     0.00000000     0.00000000
 F      1   2   0     3.200121094689   105.00377488     0.00000000
 F      1   2   3     3.200121094689   105.00377488   180.00000000
 F      1   2   3     3.200121094689    74.99622512    90.00000000
 F      1   2   3     3.200121094689    74.99622512   270.00000000

---------------------
BASIS SET INFORMATION
---------------------
There are 2 groups of distinct atoms

 Group   1 Type As  : 17s13p8d1f contracted to 6s5p4d1f pattern {842111/64111/5111/1}
 Group   2 Type F   : 11s6p2d1f contracted to 5s3p2d1f pattern {62111/411/11/1}

Atom   0As   basis set group =>   1
Atom   1F    basis set group =>   2
Atom   2F    basis set group =>   2
Atom   3F    basis set group =>   2
Atom   4F    basis set group =>   2
Atom   5F    basis set group =>   2
---------------------------------
AUXILIARY/J BASIS SET INFORMATION
---------------------------------
There are 2 groups of distinct atoms

 Group   1 Type As  : 19s5p5d3f1g contracted to 8s4p3d2f1g pattern {121111111/2111/311/21/1}
 Group   2 Type F   : 12s5p4d2f1g contracted to 6s4p3d1f1g pattern {711111/2111/211/2/1}

Atom   0As   basis set group =>   1
Atom   1F    basis set group =>   2
Atom   2F    basis set group =>   2
Atom   3F    basis set group =>   2
Atom   4F    basis set group =>   2
Atom   5F    basis set group =>   2
------------------------------------------------------------------------------
                           ORCA GTO INTEGRAL CALCULATION
                           -- RI-GTO INTEGRALS CHOSEN --
------------------------------------------------------------------------------
------------------------------------------------------------------------------
                   ___                                                        
                  /   \      - P O W E R E D   B Y -                         
                 /     \                                                     
                 |  |  |   _    _      __       _____    __    __             
                 |  |  |  | |  | |    /  \     |  _  \  |  |  /  |          
                  \  \/   | |  | |   /    \    | | | |  |  | /  /          
                 / \  \   | |__| |  /  /\  \   | |_| |  |  |/  /          
                |  |  |   |  __  | /  /__\  \  |    /   |      \           
                |  |  |   | |  | | |   __   |  |    \   |  |\   \          
                \     /   | |  | | |  |  |  |  | |\  \  |  | \   \       
                 \___/    |_|  |_| |__|  |__|  |_| \__\ |__|  \__/        
                                                                              
                      - O R C A' S   B I G   F R I E N D -                    
                                      &                                       
                       - I N T E G R A L  F E E D E R -                       
                                                                              
 v1 FN, 2020, v2 2021                                                         
------------------------------------------------------------------------------


Reading SHARK input file AsF5_ts_guess.SHARKINP.tmp ... ok
----------------------
SHARK INTEGRAL PACKAGE
----------------------

Number of atoms                             ...      6
Number of basis functions                   ...    203
Number of shells                            ...     71
Maximum angular momentum                    ...      3
Integral batch strategy                     ... SHARK/LIBINT Hybrid
RI-J (if used) integral strategy            ... SPLIT-RIJ (Revised 2003 algorithm where possible)
Printlevel                                  ...      1
Contraction scheme used                     ... SEGMENTED contraction
Coulomb Range Separation                    ... NOT USED
Exchange Range Separation                   ... NOT USED
Finite Nucleus Model                        ... NOT USED
Auxiliary Coulomb fitting basis             ... AVAILABLE
   # of basis functions in Aux-J            ...    303
   # of shells in Aux-J                     ...     93
   Maximum angular momentum in Aux-J        ...      4
Auxiliary J/K fitting basis                 ... NOT available
Auxiliary Correlation fitting basis         ... NOT available
Auxiliary 'external' fitting basis          ... NOT available
Integral threshold                          ...     1.000000e-10
Primitive cut-off                           ...     1.000000e-11
Primitive pair pre-selection threshold      ...     1.000000e-11

Calculating pre-screening integrals         ... done (  0.1 sec) Dimension = 71
Organizing shell pair data                  ... done (  0.0 sec)
Shell pair information
Total number of shell pairs                 ...      2556
Shell pairs after pre-screening             ...      2286
Total number of primitive shell pairs       ...      9906
Primitive shell pairs kept                  ...      6379
          la=0 lb=0:    397 shell pairs
          la=1 lb=0:    570 shell pairs
          la=1 lb=1:    208 shell pairs
          la=2 lb=0:    377 shell pairs
          la=2 lb=1:    272 shell pairs
          la=2 lb=2:     97 shell pairs
          la=3 lb=0:    150 shell pairs
          la=3 lb=1:    116 shell pairs
          la=3 lb=2:     80 shell pairs
          la=3 lb=3:     19 shell pairs

Calculating one electron integrals          ... done (  0.0 sec)
Calculating RI/J V-Matrix + Cholesky decomp.... done (  0.0 sec)
Calculating Nuclear repulsion               ... done (  0.0 sec) ENN=    631.107537379048 Eh

SHARK setup successfully completed in   0.3 seconds

Maximum memory used throughout the entire GTOINT-calculation: 64.2 MB
-------------------------------------------------------------------------------
                                 ORCA SCF
-------------------------------------------------------------------------------

------------
SCF SETTINGS
------------
Hamiltonian:
 Density Functional     Method          .... DFT(GTOs)
 Exchange Functional    Exchange        .... PBE
   PBE kappa parameter   XKappa         ....  0.804000
   PBE mue parameter    XMuePBE         ....  0.219520
 Correlation Functional Correlation     .... PBE
   PBE beta parameter  CBetaPBE         ....  0.066725
 LDA part of GGA corr.  LDAOpt          .... PW91-LDA
 Gradients option       PostSCFGGA      .... off
   Density functional embedding theory  .... OFF
   NL short-range parameter             ....  6.400000
 RI-approximation to the Coulomb term is turned on
   Number of AuxJ basis functions       .... 303


General Settings:
 Integral files         IntName         .... AsF5_ts_guess
 Hartree-Fock type      HFTyp           .... RHF
 Total Charge           Charge          ....    0
 Multiplicity           Mult            ....    1
 Number of Electrons    NEL             ....   78
 Basis Dimension        Dim             ....  203
 Nuclear Repulsion      ENuc            ....    631.1075373790 Eh

Convergence Acceleration:
 DIIS                   CNVDIIS         .... on
   Start iteration      DIISMaxIt       ....    12
   Startup error        DIISStart       ....  0.200000
   # of expansion vecs  DIISMaxEq       ....     5
   Bias factor          DIISBfac        ....   1.050
   Max. coefficient     DIISMaxC        ....  10.000
 Trust-Rad. Augm. Hess. CNVTRAH         .... auto
   Auto Start mean grad. ratio tolernc. ....  1.125000
   Auto Start start iteration           ....    20
   Auto Start num. interpolation iter.  ....    10
   Max. Number of Micro iterations      ....    16
   Max. Number of Macro iterations      .... Maxiter - #DIIS iter
   Number of Davidson start vectors     ....     2
   Converg. threshold I  (grad. norm)   ....   5.000e-05
   Converg. threshold II (energy diff.) ....   1.000e-06
   Grad. Scal. Fac. for Micro threshold ....   0.100
   Minimum threshold for Micro iter.    ....   0.010
   NR start threshold (gradient norm)   ....   0.001
   Initial trust radius                 ....   0.400
   Minimum AH scaling param. (alpha)    ....   1.000
   Maximum AH scaling param. (alpha)    .... 1000.000
   Orbital update algorithm             .... Taylor
   White noise on init. David. guess    .... on
   Maximum white noise                  ....   0.010
   Quad. conv. algorithm                .... NR
 SOSCF                  CNVSOSCF        .... on
   Start iteration      SOSCFMaxIt      ....   150
   Startup grad/error   SOSCFStart      ....  0.003300
 Level Shifting         CNVShift        .... on
   Level shift para.    LevelShift      ....    0.2500
   Turn off err/grad.   ShiftErr        ....    0.0010
 Zerner damping         CNVZerner       .... off
 Static damping         CNVDamp         .... on
   Fraction old density DampFac         ....    0.7000
   Max. Damping (<1)    DampMax         ....    0.9800
   Min. Damping (>=0)   DampMin         ....    0.0000
   Turn off err/grad.   DampErr         ....    0.1000
 Fernandez-Rico         CNVRico         .... off

SCF Procedure:
 Maximum # iterations   MaxIter         ....   125
 SCF integral mode      SCFMode         .... Direct
   Integral package                     .... SHARK and LIBINT hybrid scheme
 Reset frequency        DirectResetFreq ....    20
 Integral Threshold     Thresh          ....  1.000e-10 Eh
 Primitive CutOff       TCut            ....  1.000e-11 Eh

Convergence Tolerance:
 Convergence Check Mode ConvCheckMode   .... Total+1el-Energy
 Convergence forced     ConvForced      .... 0
 Energy Change          TolE            ....  1.000e-06 Eh
 1-El. energy change                    ....  1.000e-03 Eh
 Orbital Gradient       TolG            ....  5.000e-05
 Orbital Rotation angle TolX            ....  5.000e-05
 DIIS Error             TolErr          ....  1.000e-06


Diagonalization of the overlap matrix:
Smallest eigenvalue                        ... 2.499e-03
Time for diagonalization                   ...    0.005 sec
Threshold for overlap eigenvalues          ... 1.000e-08
Number of eigenvalues below threshold      ... 0
Time for construction of square roots      ...    0.004 sec
Total time needed                          ...    0.010 sec

Time for model grid setup =    0.136 sec

------------------------------
INITIAL GUESS: MODEL POTENTIAL
------------------------------
Loading Hartree-Fock densities                     ... done
Calculating cut-offs                               ... done
Initializing the effective Hamiltonian             ... done
Setting up the integral package (SHARK)            ... done
Starting the Coulomb interaction                   ... done (   0.1 sec)
Reading the grid                                   ... done
Mapping shells                                     ... done
Starting the XC term evaluation                    ... done (   0.2 sec)
  promolecular density results
     # of electrons  =     78.000055524
     EX              =   -131.272328905
     EC              =     -3.201120065
     EX+EC           =   -134.473448970
Transforming the Hamiltonian                       ... done (   0.0 sec)
Diagonalizing the Hamiltonian                      ... done (   0.0 sec)
Back transforming the eigenvectors                 ... done (   0.0 sec)
Now organizing SCF variables                       ... done
                      ------------------
                      INITIAL GUESS DONE (   0.5 sec)
                      ------------------
-------------------
DFT GRID GENERATION
-------------------

General Integration Accuracy     IntAcc      ... 4.388
Radial Grid Type                 RadialGrid  ... OptM3 with GC (2021)
Angular Grid (max. ang.)         AngularGrid ... 4 (Lebedev-302)
Angular grid pruning method      GridPruning ... 4 (adaptive)
Weight generation scheme         WeightScheme... Becke
Basis function cutoff            BFCut       ... 1.0000e-10
Integration weight cutoff        WCut        ... 1.0000e-14
Angular grids for H and He will be reduced by one unit
Partially contracted basis set               ... off
Rotationally invariant grid construction     ... off

Total number of grid points                  ...    41915
Total number of batches                      ...      656
Average number of points per batch           ...       63
Average number of grid points per atom       ...     6986
Time for grid setup =    0.508 sec

--------------
SCF ITERATIONS
--------------
ITER       Energy         Delta-E        Max-DP      RMS-DP      [F,P]     Damp
               ***  Starting incremental Fock matrix formation  ***
  0  -2734.2787017941   0.000000000000 0.24101790  0.00198889  0.2450950 0.7000
  1  -2734.4068928852  -0.128191091082 0.12731689  0.00105099  0.0694358 0.7000
                               ***Turning on DIIS***
  2  -2734.4384757644  -0.031582879194 0.08573485  0.00091737  0.0147431 0.0000
  3  -2734.5179754249  -0.079499660456 0.06717773  0.00058272  0.0342075 0.0000
  4  -2734.5245708735  -0.006595448584 0.01006640  0.00016263  0.0135788 0.0000
  5  -2734.5251589839  -0.000588110468 0.00194178  0.00005352  0.0035029 0.0000
                      *** Initiating the SOSCF procedure ***
                           *** Shutting down DIIS ***
                      *** Re-Reading the Fockian *** 
                      *** Removing any level shift *** 
ITER      Energy       Delta-E        Grad      Rot      Max-DP    RMS-DP
  6  -2734.52519458  -0.0000355922  0.000606  0.000606  0.001772  0.000024
               *** Restarting incremental Fock matrix formation ***
  7  -2734.52520994  -0.0000153589  0.000290  0.000661  0.002265  0.000021
  8  -2734.52520715   0.0000027859  0.000469  0.000356  0.001234  0.000013
  9  -2734.52521193  -0.0000047780  0.000050  0.000240  0.000108  0.000003
                 **** Energy Check signals convergence ****
              ***Rediagonalizing the Fockian in SOSCF/NRSCF***

               *****************************************************
               *                     SUCCESS                       *
               *           SCF CONVERGED AFTER  10 CYCLES          *
               *****************************************************


----------------
TOTAL SCF ENERGY
----------------

Total Energy       :        -2734.52521179 Eh          -74410.21395 eV

Components:
Nuclear Repulsion  :          631.10753738 Eh           17173.30917 eV
Electronic Energy  :        -3365.63274916 Eh          -91583.52312 eV
One Electron Energy:        -5065.77201932 Eh         -137846.66463 eV
Two Electron Energy:         1700.13927016 Eh           46263.14151 eV

Virial components:
Potential Energy   :        -5464.32320812 Eh         -148691.79384 eV
Kinetic Energy     :         2729.79799633 Eh           74281.57988 eV
Virial Ratio       :            2.00173171


DFT components:
N(Alpha)           :       39.000031353164 electrons
N(Beta)            :       39.000031353164 electrons
N(Total)           :       78.000062706329 electrons
E(X)               :     -131.551298569665 Eh       
E(C)               :       -3.196844308369 Eh       
E(XC)              :     -134.748142878034 Eh       
DFET-embed. en.    :        0.000000000000 Eh       

---------------
SCF CONVERGENCE
---------------

  Last Energy change         ...    1.4174e-07  Tolerance :   1.0000e-06
  Last MAX-Density change    ...    7.8192e-05  Tolerance :   1.0000e-05
  Last RMS-Density change    ...    1.9683e-06  Tolerance :   1.0000e-06
  Last Orbital Gradient      ...    1.0348e-04  Tolerance :   5.0000e-05
  Last Orbital Rotation      ...    1.4042e-04  Tolerance :   5.0000e-05

             **** THE GBW FILE WAS UPDATED (AsF5_ts_guess.gbw) ****
             **** DENSITY AsF5_ts_guess.scfp WAS UPDATED ****
             **** ENERGY FILE WAS UPDATED (AsF5_ts_guess.en.tmp) ****
             **** THE GBW FILE WAS UPDATED (AsF5_ts_guess.gbw) ****
             **** DENSITY AsF5_ts_guess.scfp WAS UPDATED ****
----------------
ORBITAL ENERGIES
----------------

  NO   OCC          E(Eh)            E(eV) 
   0   2.0000    -424.324508    -11546.4569 
   1   2.0000     -53.389383     -1452.7990 
   2   2.0000     -47.771857     -1299.9383 
   3   2.0000     -47.771188     -1299.9201 
   4   2.0000     -47.770936     -1299.9133 
   5   2.0000     -24.338093      -662.2732 
   6   2.0000     -24.338092      -662.2732 
   7   2.0000     -24.282926      -660.7720 
   8   2.0000     -24.282923      -660.7719 
   9   2.0000     -24.224809      -659.1906 
  10   2.0000      -6.930293      -188.5829 
  11   2.0000      -5.033952      -136.9808 
  12   2.0000      -5.032512      -136.9416 
  13   2.0000      -5.030899      -136.8977 
  14   2.0000      -1.710642       -46.5489 
  15   2.0000      -1.708230       -46.4833 
  16   2.0000      -1.706135       -46.4263 
  17   2.0000      -1.704816       -46.3904 
  18   2.0000      -1.702610       -46.3304 
  19   2.0000      -1.192509       -32.4498 
  20   2.0000      -1.163128       -31.6503 
  21   2.0000      -1.120933       -30.5021 
  22   2.0000      -1.120039       -30.4778 
  23   2.0000      -1.046670       -28.4813 
  24   2.0000      -0.655449       -17.8357 
  25   2.0000      -0.545005       -14.8304 
  26   2.0000      -0.517803       -14.0901 
  27   2.0000      -0.504058       -13.7161 
  28   2.0000      -0.456310       -12.4168 
  29   2.0000      -0.449726       -12.2377 
  30   2.0000      -0.440490       -11.9863 
  31   2.0000      -0.439663       -11.9638 
  32   2.0000      -0.415709       -11.3120 
  33   2.0000      -0.415016       -11.2932 
  34   2.0000      -0.396108       -10.7787 
  35   2.0000      -0.378699       -10.3049 
  36   2.0000      -0.359503        -9.7826 
  37   2.0000      -0.344771        -9.3817 
  38   2.0000      -0.297086        -8.0841 
  39   0.0000      -0.216232        -5.8840 
  40   0.0000       0.009015         0.2453 
  41   0.0000       0.027224         0.7408 
  42   0.0000       0.068862         1.8738 
  43   0.0000       0.157016         4.2726 
  44   0.0000       0.210421         5.7258 
  45   0.0000       0.211459         5.7541 
  46   0.0000       0.224073         6.0973 
  47   0.0000       0.314441         8.5564 
  48   0.0000       0.319431         8.6922 
  49   0.0000       0.329500         8.9661 
  50   0.0000       0.337720         9.1898 
  51   0.0000       0.363730         9.8976 
  52   0.0000       0.470670        12.8076 
  53   0.0000       0.484252        13.1772 
  54   0.0000       0.484366        13.1803 
  55   0.0000       0.491071        13.3627 
  56   0.0000       0.524251        14.2656 
  57   0.0000       0.550188        14.9714 
  58   0.0000       0.551195        14.9988 
  59   0.0000       0.598699        16.2914 
  60   0.0000       0.605804        16.4848 
  61   0.0000       0.641411        17.4537 
  62   0.0000       0.651538        17.7292 
  63   0.0000       0.663540        18.0558 
  64   0.0000       0.682723        18.5778 
  65   0.0000       0.759732        20.6734 
  66   0.0000       0.762212        20.7408 
  67   0.0000       0.850417        23.1410 
  68   0.0000       0.866179        23.5699 
  69   0.0000       0.923939        25.1417 
  70   0.0000       0.961582        26.1660 
  71   0.0000       0.969684        26.3864 
  72   0.0000       0.970096        26.3977 
  73   0.0000       0.994578        27.0638 
  74   0.0000       1.049163        28.5492 
  75   0.0000       1.067163        29.0390 
  76   0.0000       1.087037        29.5798 
  77   0.0000       1.089478        29.6462 
  78   0.0000       1.095764        29.8173 
  79   0.0000       1.139481        31.0068 
  80   0.0000       1.280328        34.8395 
  81   0.0000       1.288746        35.0686 
  82   0.0000       1.295283        35.2465 
  83   0.0000       1.446959        39.3738 
  84   0.0000       1.791521        48.7498 
  85   0.0000       1.831351        49.8336 
  86   0.0000       1.833984        49.9053 
  87   0.0000       1.864237        50.7285 
  88   0.0000       1.870048        50.8866 
  89   0.0000       1.901496        51.7423 
  90   0.0000       1.922707        52.3195 
  91   0.0000       1.923807        52.3494 
  92   0.0000       1.959500        53.3207 
  93   0.0000       2.104587        57.2687 
  94   0.0000       2.125872        57.8479 
  95   0.0000       2.191196        59.6255 
  96   0.0000       2.196303        59.7644 
  97   0.0000       2.211117        60.1676 
  98   0.0000       2.273636        61.8688 
  99   0.0000       2.293948        62.4215 
 100   0.0000       2.297390        62.5152 
 101   0.0000       2.362148        64.2773 
 102   0.0000       2.368735        64.4566 
 103   0.0000       2.401083        65.3368 
 104   0.0000       2.411540        65.6214 
 105   0.0000       2.504977        68.1639 
 106   0.0000       2.513259        68.3892 
 107   0.0000       2.531185        68.8770 
 108   0.0000       2.548097        69.3373 
 109   0.0000       2.606361        70.9227 
 110   0.0000       2.618959        71.2655 
 111   0.0000       2.628478        71.5245 
 112   0.0000       2.843593        77.3781 
 113   0.0000       2.883883        78.4745 
 114   0.0000       2.944281        80.1180 
 115   0.0000       3.012042        81.9618 
 116   0.0000       3.074744        83.6680 
 117   0.0000       3.128594        85.1334 
 118   0.0000       3.132722        85.2457 
 119   0.0000       3.143499        85.5389 
 120   0.0000       3.175805        86.4180 
 121   0.0000       3.176034        86.4243 
 122   0.0000       3.195420        86.9518 
 123   0.0000       3.206262        87.2468 
 124   0.0000       3.382839        92.0517 
 125   0.0000       3.410743        92.8110 
 126   0.0000       3.454494        94.0016 
 127   0.0000       3.490444        94.9798 
 128   0.0000       3.687323       100.3372 
 129   0.0000       3.726707       101.4089 
 130   0.0000       3.732811       101.5750 
 131   0.0000       3.740962       101.7967 
 132   0.0000       3.938571       107.1740 
 133   0.0000       4.356597       118.5490 
 134   0.0000       4.376519       119.0911 
 135   0.0000       4.396297       119.6293 
 136   0.0000       4.800345       130.6240 
 137   0.0000       5.995167       163.1368 
 138   0.0000       6.621272       180.1740 
 139   0.0000       6.631048       180.4400 
 140   0.0000       6.638135       180.6328 
 141   0.0000       6.641570       180.7263 
 142   0.0000       6.647688       180.8928 
 143   0.0000       6.652596       181.0264 
 144   0.0000       6.652862       181.0336 
 145   0.0000       6.652951       181.0360 
 146   0.0000       6.656817       181.1412 
 147   0.0000       6.663720       181.3290 
 148   0.0000       6.665661       181.3819 
 149   0.0000       6.676770       181.6842 
 150   0.0000       6.691895       182.0957 
 151   0.0000       6.693139       182.1296 
 152   0.0000       6.695664       182.1983 
 153   0.0000       6.699384       182.2995 
 154   0.0000       6.700258       182.3233 
 155   0.0000       6.700467       182.3290 
 156   0.0000       6.710380       182.5987 
 157   0.0000       6.719437       182.8452 
 158   0.0000       6.738016       183.3507 
 159   0.0000       6.744719       183.5331 
 160   0.0000       6.755276       183.8204 
 161   0.0000       6.757744       183.8876 
 162   0.0000       6.774612       184.3466 
 163   0.0000       6.774986       184.3568 
 164   0.0000       6.781120       184.5236 
 165   0.0000       6.806541       185.2154 
 166   0.0000       6.825651       185.7354 
 167   0.0000       6.879116       187.1903 
 168   0.0000       6.880144       187.2182 
 169   0.0000       6.881403       187.2525 
 170   0.0000       6.968318       189.6176 
 171   0.0000       6.983878       190.0410 
 172   0.0000       7.009670       190.7428 
 173   0.0000       8.012318       218.0263 
 174   0.0000       8.045648       218.9332 
 175   0.0000       8.048551       219.0122 
 176   0.0000       8.080612       219.8846 
 177   0.0000       8.086002       220.0313 
 178   0.0000       8.087326       220.0673 
 179   0.0000       8.102150       220.4707 
 180   0.0000       8.114577       220.8089 
 181   0.0000       8.149430       221.7573 
 182   0.0000       8.179038       222.5629 
 183   0.0000       8.212877       223.4837 
 184   0.0000       8.306129       226.0212 
 185   0.0000       8.337335       226.8704 
 186   0.0000       8.371830       227.8091 
 187   0.0000       8.377333       227.9588 
 188   0.0000       8.465009       230.3446 
 189   0.0000       8.469313       230.4617 
 190   0.0000       8.497573       231.2307 
 191   0.0000       8.541763       232.4332 
 192   0.0000       8.543550       232.4818 
 193   0.0000       8.699733       236.7318 
 194   0.0000       8.777536       238.8489 
 195   0.0000       8.786368       239.0892 
 196   0.0000       8.846827       240.7344 
 197   0.0000       8.899669       242.1723 
 198   0.0000      56.420959      1535.2923 
 199   0.0000      56.512880      1537.7937 
 200   0.0000      56.525710      1538.1428 
 201   0.0000      56.624872      1540.8411 
 202   0.0000      56.670306      1542.0774 

                    ********************************
                    * MULLIKEN POPULATION ANALYSIS *
                    ********************************

-----------------------
MULLIKEN ATOMIC CHARGES
-----------------------
   0 As:    1.229869
   1 F :   -0.309761
   2 F :   -0.216594
   3 F :   -0.216594
   4 F :   -0.243461
   5 F :   -0.243461
Sum of atomic charges:    0.0000000

--------------------------------
MULLIKEN REDUCED ORBITAL CHARGES
--------------------------------
  0 Ass       :     7.082888  s :     7.082888
      pz      :     4.591661  p :    13.740758
      px      :     4.564578
      py      :     4.584518
      dz2     :     2.171182  d :    10.705999
      dxz     :     2.151406
      dyz     :     2.118178
      dx2y2   :     2.121563
      dxy     :     2.143671
      f0      :     0.051710  f :     0.240486
      f+1     :     0.043568
      f-1     :     0.041261
      f+2     :     0.023779
      f-2     :     0.009576
      f+3     :     0.042081
      f-3     :     0.028511
  1 F s       :     3.911217  s :     3.911217
      pz      :     1.936861  p :     5.387738
      px      :     1.871163
      py      :     1.579715
      dz2     :     0.002098  d :     0.010483
      dxz     :     0.000189
      dyz     :     0.002300
      dx2y2   :     0.003380
      dxy     :     0.002516
      f0      :     0.000032  f :     0.000323
      f+1     :     0.000009
      f-1     :     0.000094
      f+2     :     0.000041
      f-2     :     0.000006
      f+3     :     0.000064
      f-3     :     0.000077
  2 F s       :     3.926590  s :     3.926590
      pz      :     1.903231  p :     5.279291
      px      :     1.511131
      py      :     1.864929
      dz2     :     0.001371  d :     0.010393
      dxz     :     0.002390
      dyz     :     0.000157
      dx2y2   :     0.003549
      dxy     :     0.002927
      f0      :     0.000033  f :     0.000319
      f+1     :     0.000063
      f-1     :     0.000010
      f+2     :     0.000040
      f-2     :     0.000009
      f+3     :     0.000085
      f-3     :     0.000079
  3 F s       :     3.926590  s :     3.926590
      pz      :     1.903231  p :     5.279291
      px      :     1.511131
      py      :     1.864929
      dz2     :     0.001371  d :     0.010393
      dxz     :     0.002390
      dyz     :     0.000157
      dx2y2   :     0.003549
      dxy     :     0.002927
      f0      :     0.000033  f :     0.000319
      f+1     :     0.000063
      f-1     :     0.000010
      f+2     :     0.000040
      f-2     :     0.000009
      f+3     :     0.000085
      f-3     :     0.000079
  4 F s       :     3.921268  s :     3.921268
      pz      :     1.607489  p :     5.310910
      px      :     1.895716
      py      :     1.807705
      dz2     :     0.004124  d :     0.010943
      dxz     :     0.002209
      dyz     :     0.003576
      dx2y2   :     0.000657
      dxy     :     0.000378
      f0      :     0.000112  f :     0.000340
      f+1     :     0.000060
      f-1     :     0.000112
      f+2     :     0.000032
      f-2     :     0.000021
      f+3     :     0.000001
      f-3     :     0.000002
  5 F s       :     3.921268  s :     3.921268
      pz      :     1.607489  p :     5.310910
      px      :     1.895716
      py      :     1.807705
      dz2     :     0.004124  d :     0.010943
      dxz     :     0.002209
      dyz     :     0.003576
      dx2y2   :     0.000657
      dxy     :     0.000378
      f0      :     0.000112  f :     0.000340
      f+1     :     0.000060
      f-1     :     0.000112
      f+2     :     0.000032
      f-2     :     0.000021
      f+3     :     0.000001
      f-3     :     0.000002


                     *******************************
                     * LOEWDIN POPULATION ANALYSIS *
                     *******************************

----------------------
LOEWDIN ATOMIC CHARGES
----------------------
   0 As:    0.382002
   1 F :   -0.148596
   2 F :   -0.040649
   3 F :   -0.040649
   4 F :   -0.076055
   5 F :   -0.076055

-------------------------------
LOEWDIN REDUCED ORBITAL CHARGES
-------------------------------
  0 Ass       :     6.766232  s :     6.766232
      pz      :     4.601127  p :    13.769885
      px      :     4.579659
      py      :     4.589098
      dz2     :     2.451500  d :    11.503391
      dxz     :     2.250863
      dyz     :     2.208337
      dx2y2   :     2.334262
      dxy     :     2.258428
      f0      :     0.125671  f :     0.578490
      f+1     :     0.100940
      f-1     :     0.113750
      f+2     :     0.047453
      f-2     :     0.020936
      f+3     :     0.092982
      f-3     :     0.076759
  1 F s       :     3.746047  s :     3.746047
      pz      :     1.904355  p :     5.383538
      px      :     1.833006
      py      :     1.646177
      dz2     :     0.004010  d :     0.018438
      dxz     :     0.000247
      dyz     :     0.003442
      dx2y2   :     0.008455
      dxy     :     0.002285
      f0      :     0.000048  f :     0.000572
      f+1     :     0.000010
      f-1     :     0.000165
      f+2     :     0.000069
      f-2     :     0.000007
      f+3     :     0.000072
      f-3     :     0.000202
  2 F s       :     3.745247  s :     3.745247
      pz      :     1.859506  p :     5.276810
      px      :     1.593863
      py      :     1.823440
      dz2     :     0.003231  d :     0.018018
      dxz     :     0.002506
      dyz     :     0.000199
      dx2y2   :     0.008256
      dxy     :     0.003826
      f0      :     0.000040  f :     0.000574
      f+1     :     0.000135
      f-1     :     0.000015
      f+2     :     0.000049
      f-2     :     0.000016
      f+3     :     0.000181
      f-3     :     0.000138
  3 F s       :     3.745247  s :     3.745247
      pz      :     1.859506  p :     5.276810
      px      :     1.593863
      py      :     1.823440
      dz2     :     0.003231  d :     0.018018
      dxz     :     0.002506
      dyz     :     0.000199
      dx2y2   :     0.008256
      dxy     :     0.003826
      f0      :     0.000040  f :     0.000574
      f+1     :     0.000135
      f-1     :     0.000015
      f+2     :     0.000049
      f-2     :     0.000016
      f+3     :     0.000181
      f-3     :     0.000138
  4 F s       :     3.742203  s :     3.742203
      pz      :     1.674646  p :     5.313521
      px      :     1.853128
      py      :     1.785748
      dz2     :     0.010481  d :     0.019711
      dxz     :     0.002337
      dyz     :     0.005654
      dx2y2   :     0.000866
      dxy     :     0.000373
      f0      :     0.000268  f :     0.000620
      f+1     :     0.000077
      f-1     :     0.000201
      f+2     :     0.000044
      f-2     :     0.000024
      f+3     :     0.000002
      f-3     :     0.000004
  5 F s       :     3.742203  s :     3.742203
      pz      :     1.674646  p :     5.313521
      px      :     1.853128
      py      :     1.785748
      dz2     :     0.010481  d :     0.019711
      dxz     :     0.002337
      dyz     :     0.005654
      dx2y2   :     0.000866
      dxy     :     0.000373
      f0      :     0.000268  f :     0.000620
      f+1     :     0.000077
      f-1     :     0.000201
      f+2     :     0.000044
      f-2     :     0.000024
      f+3     :     0.000002
      f-3     :     0.000004


                      *****************************
                      * MAYER POPULATION ANALYSIS *
                      *****************************

  NA   - Mulliken gross atomic population
  ZA   - Total nuclear charge
  QA   - Mulliken gross atomic charge
  VA   - Mayer's total valence
  BVA  - Mayer's bonded valence
  FA   - Mayer's free valence

  ATOM       NA         ZA         QA         VA         BVA        FA
  0 As    31.7701    33.0000     1.2299     5.3276     5.3276    -0.0000
  1 F      9.3098     9.0000    -0.3098     0.9952     0.9952     0.0000
  2 F      9.2166     9.0000    -0.2166     1.1880     1.1880    -0.0000
  3 F      9.2166     9.0000    -0.2166     1.1880     1.1880     0.0000
  4 F      9.2435     9.0000    -0.2435     1.1290     1.1290     0.0000
  5 F      9.2435     9.0000    -0.2435     1.1290     1.1290     0.0000

  Mayer bond orders larger than 0.100000
B(  0-As,  1-F ) :   1.0157 B(  0-As,  2-F ) :   1.0822 B(  0-As,  3-F ) :   1.0822 
B(  0-As,  4-F ) :   1.0738 B(  0-As,  5-F ) :   1.0738 

-------
TIMINGS
-------

Total SCF time: 0 days 0 hours 0 min 10 sec 

Total time                  ....      10.041 sec
Sum of individual times     ....       9.773 sec  ( 97.3%)

Fock matrix formation       ....       8.564 sec  ( 85.3%)
  Split-RI-J                ....       2.484 sec  ( 29.0% of F)
  XC integration            ....       6.004 sec  ( 70.1% of F)
    Basis function eval.    ....       1.804 sec  ( 30.0% of XC)
    Density eval.           ....       1.743 sec  ( 29.0% of XC)
    XC-Functional eval.     ....       0.326 sec  (  5.4% of XC)
    XC-Potential eval.      ....       1.762 sec  ( 29.3% of XC)
Diagonalization             ....       0.062 sec  (  0.6%)
Density matrix formation    ....       0.014 sec  (  0.1%)
Population analysis         ....       0.022 sec  (  0.2%)
Initial guess               ....       0.358 sec  (  3.6%)
Orbital Transformation      ....       0.000 sec  (  0.0%)
Orbital Orthonormalization  ....       0.000 sec  (  0.0%)
DIIS solution               ....       0.069 sec  (  0.7%)
SOSCF solution              ....       0.040 sec  (  0.4%)
Grid generation             ....       0.644 sec  (  6.4%)

Maximum memory used throughout the entire SCF-calculation: 77.8 MB

-------------------------   --------------------
FINAL SINGLE POINT ENERGY     -2734.525211785436
-------------------------   --------------------


                            ***************************************
                            *     ORCA property calculations      *
                            ***************************************

                                    ---------------------
                                    Active property flags
                                    ---------------------
   (+) Dipole Moment


------------------------------------------------------------------------------
                       ORCA ELECTRIC PROPERTIES CALCULATION
------------------------------------------------------------------------------

Dipole Moment Calculation                       ... on
Quadrupole Moment Calculation                   ... off
Polarizability Calculation                      ... off
GBWName                                         ... AsF5_ts_guess.gbw
Electron density                                ... AsF5_ts_guess.scfp
The origin for moment calculation is the CENTER OF MASS  = ( 0.000000,  0.363215  0.000000)

-------------
DIPOLE MOMENT
-------------
                                X             Y             Z
Electronic contribution:     -0.00000      -2.08393      -0.00000
Nuclear contribution   :      0.00000       0.90519       0.00000
                        -----------------------------------------
Total Dipole Moment    :     -0.00000      -1.17874      -0.00000
                        -----------------------------------------
Magnitude (a.u.)       :      1.17874
Magnitude (Debye)      :      2.99611



--------------------
Rotational spectrum 
--------------------
 
Rotational constants in cm-1:     0.101475     0.101475     0.082913 
Rotational constants in MHz :  3042.154793  3042.154793  2485.663997 

 Dipole components along the rotational axes: 
x,y,z [a.u.] :    -0.000000    -0.000000    -1.178737 
x,y,z [Debye]:    -0.000000    -0.000000    -2.996111 

 

-------------------------------------------------------------------------------
                               ORCA SCF HESSIAN
-------------------------------------------------------------------------------

                   --------- SHARK INITIALIZATION DONE ---------

Hessian of the Kohn-Sham DFT energy:
Kohn-Sham wavefunction type                      ... RKS
Hartree-Fock exchange scaling                    ...    0.000
Number of operators                              ...    1
Number of atoms                                  ...    6
Basis set dimensions                             ...  203
Integral neglect threshold                       ... 1.0e-10
Integral primitive cutoff                        ... 1.0e-11

Setting up DFT Hessian calculations              ... 

HESS GRID
---------

General Integration Accuracy     IntAcc      ... 4.629
Radial Grid Type                 RadialGrid  ... OptM3 with GC (2021)
Angular Grid (max. ang.)         AngularGrid ... 5 (Lebedev-434)
Angular grid pruning method      GridPruning ... 4 (adaptive)
Weight generation scheme         WeightScheme... Becke
Basis function cutoff            BFCut       ... 1.0000e-10
Integration weight cutoff        WCut        ... 1.0000e-14
Angular grids for H and He will be reduced by one unit
Partially contracted basis set               ... off
Rotationally invariant grid construction     ... off

Total number of grid points                  ...    66289
Total number of batches                      ...     1039
Average number of points per batch           ...       63
Average number of grid points per atom       ...    11048

Building densities                               ... done   (      0.0 sec)
Calculating rho(r) on the grid                   ... done   (      0.7 sec)
Building xc-kernel on the grid                   ... done   (      0.1 sec)
                                                     done   (      1.7 sec)

Nuclear repulsion Hessian  (SHARK)               ... done   (      0.0 sec)

----------------------------------------------
Forming right-hand sides of CP-SCF equations     ...
----------------------------------------------
One electron integral derivatives  (SHARK)       ... done   (      0.1 sec)
Transforming the overlap derivative matrices     ... done   (      0.0 sec)
Making the Q(x) pseudodensities                  ... done   (      0.0 sec)
Adding the E*S(x)*S(y) terms to the Hessian      ... done   (      0.0 sec)
Calculating energy weighted overlap derivatives  ... done   (      0.2 sec)
Two electron integral derivatives (SHARK-RI)     ... done   (      3.3 sec)
Exchange-correlation integral derivatives        ... done   (     43.2 sec)
tr(F(y)Q(x)) contribution to the Hessian         ... done   (      0.0 sec)
Response fock operator R(S(x)) (SHARK-RI)        ... done   (      0.7 sec)
XC Response fock operator R(S(x))                ... done   (     11.8 sec)
tr(F(y)S(x)) contribution to the Hessian         ... done   (      0.0 sec)
Transforming and finalizing RHSs                 ... done   (      0.0 sec)

----------------------------------------------
Solving the CP-SCF equations (RI)                ...
----------------------------------------------
     CP-SCF ITERATION   0:   9.4535e-01 (   2.4 sec   0/ 18 done)
     CP-SCF ITERATION   1:   5.4464e-02 (   2.2 sec   0/ 18 done)
     CP-SCF ITERATION   2:   1.4237e-02 (   2.2 sec   6/ 18 done)
     CP-SCF ITERATION   3:   3.4688e-03 (   1.6 sec  10/ 18 done)
     CP-SCF ITERATION   4:   1.0842e-03 (   1.2 sec  17/ 18 done)
     CP-SCF ITERATION   5:   2.4357e-04 (   0.4 sec  18/ 18 done)
                    *** THE CP-SCF HAS CONVERGED ***

                                                 ... done   (     10.4 sec)
Forming perturbed density Hessian contributions  ... done   (      0.0 sec)
2nd integral derivative contribs (SHARK-RI)      ... done   (     10.7 sec)
Exchange-correlation Hessian                     ... done   (     23.1 sec)
Dipole derivatives                               ... (center of mass:  0.000000,  0.363215  0.000000)done   (      0.2 sec)

Total SCF Hessian time: 0 days 0 hours 1 min 46 sec 

Writing the Hessian file to the disk             ... done


Maximum memory used throughout the entire SCFHESS-calculation: 333.5 MB

-----------------------
VIBRATIONAL FREQUENCIES
-----------------------

Scaling factor for frequencies =  1.000000000  (already applied!)

   0:         0.00 cm**-1
   1:         0.00 cm**-1
   2:         0.00 cm**-1
   3:         0.00 cm**-1
   4:         0.00 cm**-1
   5:         0.00 cm**-1
   6:      -142.65 cm**-1 ***imaginary mode***
   7:       127.49 cm**-1
   8:       315.14 cm**-1
   9:       319.86 cm**-1
  10:       331.80 cm**-1
  11:       375.63 cm**-1
  12:       570.34 cm**-1
  13:       623.02 cm**-1
  14:       702.59 cm**-1
  15:       801.98 cm**-1
  16:       806.57 cm**-1
  17:       825.13 cm**-1


------------
NORMAL MODES
------------

These modes are the Cartesian displacements weighted by the diagonal matrix
M(i,i)=1/sqrt(m[i]) where m[i] is the mass of the displaced atom
Thus, these vectors are normalized but *not* orthogonal

                  0          1          2          3          4          5    
      0       0.000000   0.000000   0.000000   0.000000   0.000000   0.000000
      1       0.000000   0.000000   0.000000   0.000000   0.000000   0.000000
      2       0.000000   0.000000   0.000000   0.000000   0.000000   0.000000
      3       0.000000   0.000000   0.000000   0.000000   0.000000   0.000000
      4       0.000000   0.000000   0.000000   0.000000   0.000000   0.000000
      5       0.000000   0.000000   0.000000   0.000000   0.000000   0.000000
      6       0.000000   0.000000   0.000000   0.000000   0.000000   0.000000
      7       0.000000   0.000000   0.000000   0.000000   0.000000   0.000000
      8       0.000000   0.000000   0.000000   0.000000   0.000000   0.000000
      9       0.000000   0.000000   0.000000   0.000000   0.000000   0.000000
     10       0.000000   0.000000   0.000000   0.000000   0.000000   0.000000
     11       0.000000   0.000000   0.000000   0.000000   0.000000   0.000000
     12       0.000000   0.000000   0.000000   0.000000   0.000000   0.000000
     13       0.000000   0.000000   0.000000   0.000000   0.000000   0.000000
     14       0.000000   0.000000   0.000000   0.000000   0.000000   0.000000
     15       0.000000   0.000000   0.000000   0.000000   0.000000   0.000000
     16       0.000000   0.000000   0.000000   0.000000   0.000000   0.000000
     17       0.000000   0.000000   0.000000   0.000000   0.000000   0.000000
                  6          7          8          9         10         11    
      0      -0.011633  -0.000000   0.000000   0.000000   0.267356   0.000000
      1      -0.000000   0.114905  -0.000000   0.000000  -0.000000   0.327992
      2       0.000000  -0.000000  -0.000000  -0.218807   0.000000   0.000000
      3      -0.703570  -0.000000  -0.000000  -0.000000  -0.391749  -0.000000
      4      -0.000000   0.160378  -0.000000   0.000000  -0.000000   0.141887
      5      -0.000000   0.000000  -0.000000  -0.037763   0.000000  -0.000000
      6      -0.064855  -0.246358   0.000000   0.000000   0.145600  -0.164557
      7      -0.234502  -0.584524  -0.000000  -0.000000  -0.372691  -0.087093
      8      -0.000000   0.000000  -0.500000   0.624662  -0.000000  -0.000000
      9      -0.064855   0.246358   0.000000   0.000000   0.145600   0.164557
     10       0.234502  -0.584524   0.000000   0.000000   0.372691  -0.087093
     11      -0.000000   0.000000   0.500000   0.624662  -0.000000  -0.000000
     12       0.439579   0.000000  -0.500000   0.000000  -0.476895  -0.000000
     13      -0.000000   0.277766  -0.000000  -0.233991   0.000000  -0.630581
     14       0.000000  -0.031996  -0.000000  -0.174339   0.000000   0.062035
     15       0.439579   0.000000   0.500000  -0.000000  -0.476895  -0.000000
     16      -0.000000   0.277766   0.000000   0.233991  -0.000000  -0.630581
     17      -0.000000   0.031996  -0.000000  -0.174339   0.000000  -0.062035
                 12         13         14         15         16         17    
      0       0.000000   0.000000   0.000000   0.319120   0.000000  -0.000000
      1      -0.000000  -0.076140  -0.135820  -0.000000   0.161251   0.000000
      2       0.193811   0.000000   0.000000  -0.000000   0.000000  -0.274726
      3      -0.000000  -0.000000   0.000000   0.000392   0.000000   0.000000
      4      -0.000000   0.626936   0.105372   0.000000  -0.696910  -0.000000
      5      -0.798078   0.000000   0.000000  -0.000000   0.000000  -0.239257
      6      -0.000000   0.218904  -0.627348  -0.645922   0.025442   0.000000
      7      -0.000000  -0.058747   0.229931   0.177745  -0.001612   0.000000
      8      -0.027666  -0.000000  -0.000000   0.000000  -0.000000   0.004659
      9       0.000000  -0.218904   0.627348  -0.645922  -0.025443   0.000000
     10       0.000000  -0.058747   0.229931  -0.177745  -0.001612   0.000000
     11      -0.027666  -0.000000  -0.000000   0.000000  -0.000000   0.004659
     12      -0.000000  -0.000000   0.000000   0.016489   0.000000  -0.000000
     13      -0.400005  -0.104589  -0.014808  -0.000000   0.032115   0.049031
     14       0.044552  -0.488127  -0.196396   0.000000  -0.492419   0.656670
     15      -0.000000  -0.000000  -0.000000   0.016489   0.000000   0.000000
     16       0.400005  -0.104589  -0.014808  -0.000000   0.032115  -0.049031
     17       0.044552   0.488127   0.196396  -0.000000   0.492418   0.656670


-----------
IR SPECTRUM
-----------

 Mode   freq       eps      Int      T**2         TX        TY        TZ
       cm**-1   L/(mol*cm) km/mol    a.u.
----------------------------------------------------------------------------
  7:    127.49   0.000316    1.60  0.000774  (-0.000000  0.027819 -0.000000)
  8:    315.14   0.000000    0.00  0.000000  ( 0.000000  0.000000 -0.000000)
  9:    319.86   0.005545   28.02  0.005410  ( 0.000000  0.000000 -0.073552)
 10:    331.80   0.006725   33.98  0.006325  ( 0.079530 -0.000000  0.000000)
 11:    375.63   0.008384   42.37  0.006966  ( 0.000000  0.083460  0.000000)
 12:    570.34   0.008363   42.26  0.004576  ( 0.000000  0.000000  0.067646)
 13:    623.02   0.003368   17.02  0.001687  ( 0.000000 -0.041074  0.000000)
 14:    702.59   0.009907   50.06  0.004400  ( 0.000000 -0.066333  0.000000)
 15:    801.98   0.023215  117.32  0.009033  ( 0.095044 -0.000000 -0.000000)
 16:    806.57   0.007062   35.69  0.002732  ( 0.000000  0.052270  0.000000)
 17:    825.13   0.023855  120.55  0.009022  (-0.000000  0.000000 -0.094984)

* The epsilon (eps) is given for a Dirac delta lineshape.
** The dipole moment derivative (T) already includes vibrational overlap.

The first frequency considered to be a vibration is 7
The total number of vibrations considered is 11


--------------------------
THERMOCHEMISTRY AT 298.15K
--------------------------

Temperature         ... 298.15 K
Pressure            ... 1.00 atm
Total Mass          ... 169.91 AMU

Throughout the following assumptions are being made:
  (1) The electronic state is orbitally nondegenerate
  (2) There are no thermally accessible electronically excited states
  (3) Hindered rotations indicated by low frequency modes are not
      treated as such but are treated as vibrations and this may
      cause some error
  (4) All equations used are the standard statistical mechanics
      equations for an ideal gas
  (5) All vibrations are strictly harmonic

freq.     127.49  E(vib)   ...       0.43 
freq.     315.14  E(vib)   ...       0.25 
freq.     319.86  E(vib)   ...       0.25 
freq.     331.80  E(vib)   ...       0.24 
freq.     375.63  E(vib)   ...       0.21 
freq.     570.34  E(vib)   ...       0.11 
freq.     623.02  E(vib)   ...       0.09 
freq.     702.59  E(vib)   ...       0.07 
freq.     801.98  E(vib)   ...       0.05 
freq.     806.57  E(vib)   ...       0.05 
freq.     825.13  E(vib)   ...       0.04 

------------
INNER ENERGY
------------

The inner energy is: U= E(el) + E(ZPE) + E(vib) + E(rot) + E(trans)
    E(el)   - is the total energy from the electronic structure calculation
              = E(kin-el) + E(nuc-el) + E(el-el) + E(nuc-nuc)
    E(ZPE)  - the the zero temperature vibrational energy from the frequency calculation
    E(vib)  - the the finite temperature correction to E(ZPE) due to population
              of excited vibrational states
    E(rot)  - is the rotational thermal energy
    E(trans)- is the translational thermal energy

Summary of contributions to the inner energy U:
Electronic energy                ...  -2734.52521179 Eh
Zero point energy                ...      0.01321233 Eh       8.29 kcal/mol
Thermal vibrational correction   ...      0.00285889 Eh       1.79 kcal/mol
Thermal rotational correction    ...      0.00141627 Eh       0.89 kcal/mol
Thermal translational correction ...      0.00141627 Eh       0.89 kcal/mol
-----------------------------------------------------------------------
Total thermal energy                  -2734.50630803 Eh


Summary of corrections to the electronic energy:
(perhaps to be used in another calculation)
Total thermal correction                  0.00569143 Eh       3.57 kcal/mol
Non-thermal (ZPE) correction              0.01321233 Eh       8.29 kcal/mol
-----------------------------------------------------------------------
Total correction                          0.01890376 Eh      11.86 kcal/mol


--------
ENTHALPY
--------

The enthalpy is H = U + kB*T
                kB is Boltzmann's constant
Total free energy                 ...  -2734.50630803 Eh 
Thermal Enthalpy correction       ...      0.00094421 Eh       0.59 kcal/mol
-----------------------------------------------------------------------
Total Enthalpy                    ...  -2734.50536382 Eh


Note: Rotational entropy computed according to Herzberg 
Infrared and Raman Spectra, Chapter V,1, Van Nostrand Reinhold, 1945 
Point Group:  C2v, Symmetry Number:   2  
Rotational constants in cm-1:     0.101475     0.101475     0.082913 

Vibrational entropy computed according to the QRRHO of S. Grimme
Chem.Eur.J. 2012 18 9955


-------
ENTROPY
-------

The entropy contributions are T*S = T*(S(el)+S(vib)+S(rot)+S(trans))
     S(el)   - electronic entropy
     S(vib)  - vibrational entropy
     S(rot)  - rotational entropy
     S(trans)- translational entropy
The entropies will be listed as multiplied by the temperature to get
units of energy

Electronic entropy                ...      0.00000000 Eh      0.00 kcal/mol
Vibrational entropy               ...      0.00459225 Eh      2.88 kcal/mol
Rotational entropy                ...      0.01219207 Eh      7.65 kcal/mol
Translational entropy             ...      0.01962201 Eh     12.31 kcal/mol
-----------------------------------------------------------------------
Final entropy term                ...      0.03640632 Eh     22.85 kcal/mol

In case the symmetry of your molecule has not been determined correctly
or in case you have a reason to use a different symmetry number we print 
out the resulting rotational entropy values for sn=1,12 :
 --------------------------------------------------------
|  sn= 1 | S(rot)=       0.01284653 Eh      8.06 kcal/mol|
|  sn= 2 | S(rot)=       0.01219207 Eh      7.65 kcal/mol|
|  sn= 3 | S(rot)=       0.01180924 Eh      7.41 kcal/mol|
|  sn= 4 | S(rot)=       0.01153762 Eh      7.24 kcal/mol|
|  sn= 5 | S(rot)=       0.01132693 Eh      7.11 kcal/mol|
|  sn= 6 | S(rot)=       0.01115478 Eh      7.00 kcal/mol|
|  sn= 7 | S(rot)=       0.01100924 Eh      6.91 kcal/mol|
|  sn= 8 | S(rot)=       0.01088316 Eh      6.83 kcal/mol|
|  sn= 9 | S(rot)=       0.01077195 Eh      6.76 kcal/mol|
|  sn=10 | S(rot)=       0.01067247 Eh      6.70 kcal/mol|
|  sn=11 | S(rot)=       0.01058248 Eh      6.64 kcal/mol|
|  sn=12 | S(rot)=       0.01050033 Eh      6.59 kcal/mol|
 --------------------------------------------------------


-------------------
GIBBS FREE ENERGY
-------------------

The Gibbs free energy is G = H - T*S

Total enthalpy                    ...  -2734.50536382 Eh 
Total entropy correction          ...     -0.03640632 Eh    -22.85 kcal/mol
-----------------------------------------------------------------------
Final Gibbs free energy         ...  -2734.54177014 Eh

For completeness - the Gibbs free energy minus the electronic energy
G-E(el)                           ...     -0.01655835 Eh    -10.39 kcal/mol


Timings for individual modules:

Sum of individual times         ...      116.633 sec (=   1.944 min)
GTO integral calculation        ...        0.350 sec (=   0.006 min)   0.3 %
SCF iterations                  ...       10.080 sec (=   0.168 min)   8.6 %
Analytical frequency calculation...      106.203 sec (=   1.770 min)  91.1 %
                             ****ORCA TERMINATED NORMALLY****
TOTAL RUN TIME: 0 days 0 hours 1 minutes 56 seconds 943 msec
