
                                 *****************
                                 * O   R   C   A *
                                 *****************

                                            #,                                       
                                            ###                                      
                                            ####                                     
                                            #####                                    
                                            ######                                   
                                           ########,                                 
                                     ,,################,,,,,                         
                               ,,#################################,,                 
                          ,,##########################################,,             
                       ,#########################################, ''#####,          
                    ,#############################################,,   '####,        
                  ,##################################################,,,,####,       
                ,###########''''           ''''###############################       
              ,#####''   ,,,,##########,,,,          '''####'''          '####       
            ,##' ,,,,###########################,,,                        '##       
           ' ,,###''''                  '''############,,,                           
         ,,##''                                '''############,,,,        ,,,,,,###''
      ,#''                                            '''#######################'''  
     '                                                          ''''####''''         
             ,#######,   #######,   ,#######,      ##                                
            ,#'     '#,  ##    ##  ,#'     '#,    #''#        ######   ,####,        
            ##       ##  ##   ,#'  ##            #'  '#       #        #'  '#        
            ##       ##  #######   ##           ,######,      #####,   #    #        
            '#,     ,#'  ##    ##  '#,     ,#' ,#      #,         ##   #,  ,#        
             '#######'   ##     ##  '#######'  #'      '#     #####' # '####'        



                  #######################################################
                  #                        -***-                        #
                  #          Department of theory and spectroscopy      #
                  #    Directorship and core code : Frank Neese         #
                  #        Max Planck Institute fuer Kohlenforschung    #
                  #                Kaiser Wilhelm Platz 1               #
                  #                 D-45470 Muelheim/Ruhr               #
                  #                      Germany                        #
                  #                                                     #
                  #                  All rights reserved                #
                  #                        -***-                        #
                  #######################################################



                         Program Version 5.0.4 -  RELEASE  -

 With contributions from (in alphabetic order):
   Daniel Aravena         : Magnetic Suceptibility
   Michael Atanasov       : Ab Initio Ligand Field Theory (pilot matlab implementation)
   Alexander A. Auer      : GIAO ZORA, VPT2 properties, NMR spectrum
   Ute Becker             : Parallelization
   Giovanni Bistoni       : ED, misc. LED, open-shell LED, HFLD
   Martin Brehm           : Molecular dynamics
   Dmytro Bykov           : SCF Hessian
   Vijay G. Chilkuri      : MRCI spin determinant printing, contributions to CSF-ICE
   Dipayan Datta          : RHF DLPNO-CCSD density
   Achintya Kumar Dutta   : EOM-CC, STEOM-CC
   Dmitry Ganyushin       : Spin-Orbit,Spin-Spin,Magnetic field MRCI
   Miquel Garcia          : C-PCM and meta-GGA Hessian, CC/C-PCM, Gaussian charge scheme
   Yang Guo               : DLPNO-NEVPT2, F12-NEVPT2, CIM, IAO-localization
   Andreas Hansen         : Spin unrestricted coupled pair/coupled cluster methods
   Benjamin Helmich-Paris : MC-RPA, TRAH-SCF, COSX integrals
   Lee Huntington         : MR-EOM, pCC
   Robert Izsak           : Overlap fitted RIJCOSX, COSX-SCS-MP3, EOM
   Marcus Kettner         : VPT2
   Christian Kollmar      : KDIIS, OOCD, Brueckner-CCSD(T), CCSD density, CASPT2, CASPT2-K
   Simone Kossmann        : Meta GGA functionals, TD-DFT gradient, OOMP2, MP2 Hessian
   Martin Krupicka        : Initial AUTO-CI
   Lucas Lang             : DCDCAS
   Marvin Lechner         : AUTO-CI (C++ implementation), FIC-MRCC
   Dagmar Lenk            : GEPOL surface, SMD
   Dimitrios Liakos       : Extrapolation schemes; Compound Job, initial MDCI parallelization
   Dimitrios Manganas     : Further ROCIS development; embedding schemes
   Dimitrios Pantazis     : SARC Basis sets
   Anastasios Papadopoulos: AUTO-CI, single reference methods and gradients
   Taras Petrenko         : DFT Hessian,TD-DFT gradient, ASA, ECA, R-Raman, ABS, FL, XAS/XES, NRVS
   Peter Pinski           : DLPNO-MP2, DLPNO-MP2 Gradient
   Christoph Reimann      : Effective Core Potentials
   Marius Retegan         : Local ZFS, SOC
   Christoph Riplinger    : Optimizer, TS searches, QM/MM, DLPNO-CCSD(T), (RO)-DLPNO pert. Triples
   Tobias Risthaus        : Range-separated hybrids, TD-DFT gradient, RPA, STAB
   Michael Roemelt        : Original ROCIS implementation
   Masaaki Saitow         : Open-shell DLPNO-CCSD energy and density
   Barbara Sandhoefer     : DKH picture change effects
   Avijit Sen             : IP-ROCIS
   Kantharuban Sivalingam : CASSCF convergence, NEVPT2, FIC-MRCI
   Bernardo de Souza      : ESD, SOC TD-DFT
   Georgi Stoychev        : AutoAux, RI-MP2 NMR, DLPNO-MP2 response
   Willem Van den Heuvel  : Paramagnetic NMR
   Boris Wezisla          : Elementary symmetry handling
   Frank Wennmohs         : Technical directorship


 We gratefully acknowledge several colleagues who have allowed us to
 interface, adapt or use parts of their codes:
   Stefan Grimme, W. Hujo, H. Kruse, P. Pracht,  : VdW corrections, initial TS optimization,
                  C. Bannwarth, S. Ehlert          DFT functionals, gCP, sTDA/sTD-DF
   Ed Valeev, F. Pavosevic, A. Kumar             : LibInt (2-el integral package), F12 methods
   Garnet Chan, S. Sharma, J. Yang, R. Olivares  : DMRG
   Ulf Ekstrom                                   : XCFun DFT Library
   Mihaly Kallay                                 : mrcc  (arbitrary order and MRCC methods)
   Jiri Pittner, Ondrej Demel                    : Mk-CCSD
   Frank Weinhold                                : gennbo (NPA and NBO analysis)
   Christopher J. Cramer and Donald G. Truhlar   : smd solvation model
   Lars Goerigk                                  : TD-DFT with DH, B97 family of functionals
   V. Asgeirsson, H. Jonsson                     : NEB implementation
   FAccTs GmbH                                   : IRC, NEB, NEB-TS, DLPNO-Multilevel, CI-OPT
                                                   MM, QMMM, 2- and 3-layer-ONIOM, Crystal-QMMM,
                                                   LR-CPCM, SF, NACMEs, symmetry and pop. for TD-DFT,
                                                   nearIR, NL-DFT gradient (VV10), updates on ESD,
                                                   ML-optimized integration grids
   S Lehtola, MJT Oliveira, MAL Marques          : LibXC Library
   Liviu Ungur et al                             : ANISO software


 Your calculation uses the libint2 library for the computation of 2-el integrals
 For citations please refer to: http://libint.valeyev.net

 Your ORCA version has been built with support for libXC version: 5.1.0
 For citations please refer to: https://tddft.org/programs/libxc/

 This ORCA versions uses:
   CBLAS   interface :  Fast vector & matrix operations
   LAPACKE interface :  Fast linear algebra routines
   Shared memory     :  Shared parallel matrices


================================================================================

cite the ECPs for Sb [Def2-ECP] as follows:
Ce-Yb(ecp-28): M. Dolg, H. Stoll, H.Preuss, J. Chem. Phys., 1989, 90, 1730-1734.
Y-Cd(ecp-28), Hf-Hg(ecp-46): D. Andrae,U. Haeussermann, M. Dolg, H. Stoll, H. Preuss, Theor. Chim. Acta, 1990, 77, 123-141.
In-Sb(ecp-28), Tl-Bi(ecp-46): B. Metz, H. Stoll, M. Dolg, J. Chem. Phys., 2000, 113, 2563-2569.
Te-Xe(ecp-28), Po-Rn(ecp-46): K. A. Peterson, D. Figgen, E. Goll, H. Stoll, M. Dolg, J. Chem. Phys., 2003, 119, 11113-11123.
Rb(ecp-28), Cs(ecp-46): T. Leininger, A. Nicklass, W. Kuechle, H. Stoll, M. Dolg, A. Bergner, Chem. Phys. Lett., 1996, 255, 274-280.
Sr(ecp-28), Ba(ecp-46): M. Kaupp, P. V. Schleyer, H. Stoll and H. Preuss, J. Chem. Phys., 1991, 94, 1360-1366.
La(ecp-46): M. Dolg, H. Stoll, A. Savin, H. Preuss, Theor. Chim. Acta, 1989, 75, 173-194.
Lu(ecp-28): X. Cao, M. Dolg, J. Chem. Phys., 2001, 115, 7348-7355.

ECP parameters for Sb [Def2-ECP] have been obtained from:
TURBOMOLE (7.0.2)

----- Orbital basis set information -----
Your calculation utilizes the basis: def2-TZVP
   F. Weigend and R. Ahlrichs, Phys. Chem. Chem. Phys. 7, 3297 (2005).

----- AuxJ basis set information -----
Your calculation utilizes the auxiliary basis: def2/J
   F. Weigend, Phys. Chem. Chem. Phys. 8, 1057 (2006).

================================================================================
                                        WARNINGS
                       Please study these warnings very carefully!
================================================================================


WARNING: Geometry Optimization
  ===> : Switching off AutoStart
         For restart on a previous wavefunction, please use MOREAD

INFO   : the flag for use of the SHARK integral package has been found!

================================================================================
                                       INPUT FILE
================================================================================
NAME = SbCl5_ts_opt.inp
|  1> ! PBE def2-TZVP OptTS
|  2> 
|  3> # %geom
|  4> #   Calc_Hess true
|  5> # end
|  6> 
|  7> %geom
|  8>   inhess read
|  9>   inhessname "SbCl5_ts_guess.hess"
| 10> end
| 11> 
| 12> * xyz 0 1
| 13> Sb  0.0000  0.0000  0.0000  # Antimony (Sb)
| 14> Cl  0.0000  2.2770  0.0000  # Equatorial Chlorine (Cl1) 
| 15> Cl  2.2289 -0.5972  0.0000  # Equatorial Chlorine (Cl2)
| 16> Cl -2.2289 -0.5972  0.0000  # Equatorial Chlorine (Cl3)
| 17> Cl  0.0000 -0.5972  2.2289  # Axial Chlorine (Cl4)
| 18> Cl  0.0000 -0.5972 -2.2289  # Axial Chlorine (Cl5)
| 19> **                         ****END OF INPUT****
================================================================================

                       *****************************
                       * Geometry Optimization Run *
                       *****************************

Geometry optimization settings:
Update method            Update   .... Bofill
Choice of coordinates    CoordSys .... Z-matrix Internals
Initial Hessian          InHess   .... Read

Convergence Tolerances:
Energy Change            TolE     ....  5.0000e-06 Eh
Max. Gradient            TolMAXG  ....  3.0000e-04 Eh/bohr
RMS Gradient             TolRMSG  ....  1.0000e-04 Eh/bohr
Max. Displacement        TolMAXD  ....  4.0000e-03 bohr
RMS Displacement         TolRMSD  ....  2.0000e-03 bohr
Strict Convergence                ....  False
------------------------------------------------------------------------------
                        ORCA OPTIMIZATION COORDINATE SETUP
------------------------------------------------------------------------------

The optimization will be done in new redundant internal coordinates
Making redundant internal coordinates   ...  (new redundants) done
Following TS mode number                ...     0
Evaluating the initial hessian          ... (Reading Exact Hessian)...  
InHessName: SbCl5_ts_guess.hess	The file <SbCl5_ts_guess.hess> is opened as a .hess file
done
done
Diagonalizing the Hessian               .... done
Dimension of the hessian                .... 15
Lowest eigenvalues of the non projected Hessian:
 -0.051696132 -0.000000858 -0.000000000  0.000001131  0.081247174
done
Evaluating the coordinates              ...  done
Calculating the B-matrix                .... done
Calculating the G-matrix                .... done
Diagonalizing the G-matrix              .... done
The first mode is                       ....    3
The number of degrees of freedom        ....   12

    -----------------------------------------------------------------
                    Redundant Internal Coordinates


    -----------------------------------------------------------------
         Definition                    Initial Value    d2E/dq (diagonal element)
    -----------------------------------------------------------------
      1. B(Cl  1,Sb  0)                  2.2770         0.170169   
      2. B(Cl  2,Sb  0)                  2.3075         0.157304   
      3. B(Cl  3,Sb  0)                  2.3075         0.157304   
      4. B(Cl  4,Sb  0)                  2.3075         0.157304   
      5. B(Cl  5,Sb  0)                  2.3075         0.157304   
      6. A(Cl  1,Sb  0,Cl  3)          104.9992         0.045258   
      7. A(Cl  2,Sb  0,Cl  3)          150.0015         0.009423   
      8. A(Cl  1,Sb  0,Cl  4)          104.9992         0.045258   
      9. A(Cl  2,Sb  0,Cl  4)           86.1594         0.215978   
     10. A(Cl  3,Sb  0,Cl  4)           86.1594         0.215978   
     11. A(Cl  1,Sb  0,Cl  5)          104.9992         0.045258   
     12. A(Cl  2,Sb  0,Cl  5)           86.1594         0.215978   
     13. A(Cl  3,Sb  0,Cl  5)           86.1594         0.215978   
     14. A(Cl  4,Sb  0,Cl  5)          150.0015         0.009423   
     15. A(Cl  1,Sb  0,Cl  2)          104.9992         0.045258   
    -----------------------------------------------------------------

Number of atoms                         .... 6
Number of degrees of freedom            .... 15

         *************************************************************
         *                GEOMETRY OPTIMIZATION CYCLE   1            *
         *************************************************************
---------------------------------
CARTESIAN COORDINATES (ANGSTROEM)
---------------------------------
  Sb     0.000000    0.000000    0.000000
  Cl     0.000000    2.277000    0.000000
  Cl     2.228900   -0.597200    0.000000
  Cl    -2.228900   -0.597200    0.000000
  Cl     0.000000   -0.597200    2.228900
  Cl     0.000000   -0.597200   -2.228900

----------------------------
CARTESIAN COORDINATES (A.U.)
----------------------------
  NO LB      ZA    FRAG     MASS         X           Y           Z
   0 Sb   23.0000*   0   121.750    0.000000    0.000000    0.000000
   1 Cl   17.0000    0    35.453    0.000000    4.302906    0.000000
   2 Cl   17.0000    0    35.453    4.212011   -1.128544    0.000000
   3 Cl   17.0000    0    35.453   -4.212011   -1.128544    0.000000
   4 Cl   17.0000    0    35.453    0.000000   -1.128544    4.212011
   5 Cl   17.0000    0    35.453    0.000000   -1.128544   -4.212011
* core charge reduced due to ECP

--------------------------------
INTERNAL COORDINATES (ANGSTROEM)
--------------------------------
 Sb     0   0   0     0.000000000000     0.00000000     0.00000000
 Cl     1   0   0     2.277000000000     0.00000000     0.00000000
 Cl     1   2   0     2.307518808157   104.99923359     0.00000000
 Cl     1   2   3     2.307518808157   104.99923359   180.00000000
 Cl     1   2   3     2.307518808157   104.99923359    90.00000000
 Cl     1   2   3     2.307518808157   104.99923359   270.00000000

---------------------------
INTERNAL COORDINATES (A.U.)
---------------------------
 Sb     0   0   0     0.000000000000     0.00000000     0.00000000
 Cl     1   0   0     4.302906406939     0.00000000     0.00000000
 Cl     1   2   0     4.360578596290   104.99923359     0.00000000
 Cl     1   2   3     4.360578596290   104.99923359   180.00000000
 Cl     1   2   3     4.360578596290   104.99923359    90.00000000
 Cl     1   2   3     4.360578596290   104.99923359   270.00000000

---------------------
BASIS SET INFORMATION
---------------------
There are 2 groups of distinct atoms

 Group   1 Type Sb  : 10s9p8d2f contracted to 6s5p3d2f pattern {421111/33111/611/11}
 Group   2 Type Cl  : 14s9p3d1f contracted to 5s5p2d1f pattern {73211/51111/21/1}

Atom   0Sb   basis set group =>   1
Atom   1Cl   basis set group =>   2
Atom   2Cl   basis set group =>   2
Atom   3Cl   basis set group =>   2
Atom   4Cl   basis set group =>   2
Atom   5Cl   basis set group =>   2
---------------------------------
AUXILIARY/J BASIS SET INFORMATION
---------------------------------
There are 2 groups of distinct atoms

 Group   1 Type Sb  : 11s5p5d3f1g contracted to 8s4p3d2f1g pattern {41111111/2111/311/21/1}
 Group   2 Type Cl  : 14s5p5d2f1g contracted to 8s4p3d1f1g pattern {71111111/2111/311/2/1}

Atom   0Sb   basis set group =>   1
Atom   1Cl   basis set group =>   2
Atom   2Cl   basis set group =>   2
Atom   3Cl   basis set group =>   2
Atom   4Cl   basis set group =>   2
Atom   5Cl   basis set group =>   2
-------------------------
ECP PARAMETER INFORMATION
-------------------------

 Group 1, Type Sb ECP Def2-ECP (replacing 28 core electrons, lmax=3)

Atom   0Sb   ECP group =>   1

------------------------------------------------------------------------------
                           ORCA GTO INTEGRAL CALCULATION
                           -- RI-GTO INTEGRALS CHOSEN --
------------------------------------------------------------------------------
------------------------------------------------------------------------------
                   ___                                                        
                  /   \      - P O W E R E D   B Y -                         
                 /     \                                                     
                 |  |  |   _    _      __       _____    __    __             
                 |  |  |  | |  | |    /  \     |  _  \  |  |  /  |          
                  \  \/   | |  | |   /    \    | | | |  |  | /  /          
                 / \  \   | |__| |  /  /\  \   | |_| |  |  |/  /          
                |  |  |   |  __  | /  /__\  \  |    /   |      \           
                |  |  |   | |  | | |   __   |  |    \   |  |\   \          
                \     /   | |  | | |  |  |  |  | |\  \  |  | \   \       
                 \___/    |_|  |_| |__|  |__|  |_| \__\ |__|  \__/        
                                                                              
                      - O R C A' S   B I G   F R I E N D -                    
                                      &                                       
                       - I N T E G R A L  F E E D E R -                       
                                                                              
 v1 FN, 2020, v2 2021                                                         
------------------------------------------------------------------------------


Reading SHARK input file SbCl5_ts_opt.SHARKINP.tmp ... ok
----------------------
SHARK INTEGRAL PACKAGE
----------------------

Number of atoms                             ...      6
Number of basis functions                   ...    235
Number of shells                            ...     81
Maximum angular momentum                    ...      3
Integral batch strategy                     ... SHARK/LIBINT Hybrid
RI-J (if used) integral strategy            ... SPLIT-RIJ (Revised 2003 algorithm where possible)
Printlevel                                  ...      1
Contraction scheme used                     ... SEGMENTED contraction
Coulomb Range Separation                    ... NOT USED
Exchange Range Separation                   ... NOT USED
Finite Nucleus Model                        ... NOT USED
Auxiliary Coulomb fitting basis             ... AVAILABLE
   # of basis functions in Aux-J            ...    313
   # of shells in Aux-J                     ...    103
   Maximum angular momentum in Aux-J        ...      4
Auxiliary J/K fitting basis                 ... NOT available
Auxiliary Correlation fitting basis         ... NOT available
Auxiliary 'external' fitting basis          ... NOT available
Integral threshold                          ...     2.500000e-11
Primitive cut-off                           ...     2.500000e-12
Primitive pair pre-selection threshold      ...     2.500000e-12

Calculating pre-screening integrals         ... done (  0.1 sec) Dimension = 81
Organizing shell pair data                  ... done (  0.1 sec)
Shell pair information
Total number of shell pairs                 ...      3321
Shell pairs after pre-screening             ...      2757
Total number of primitive shell pairs       ...     13738
Primitive shell pairs kept                  ...      7731
          la=0 lb=0:    354 shell pairs
          la=1 lb=0:    710 shell pairs
          la=1 lb=1:    381 shell pairs
          la=2 lb=0:    351 shell pairs
          la=2 lb=1:    354 shell pairs
          la=2 lb=2:     89 shell pairs
          la=3 lb=0:    197 shell pairs
          la=3 lb=1:    202 shell pairs
          la=3 lb=2:     91 shell pairs
          la=3 lb=3:     28 shell pairs

Calculating one electron integrals          ... done (  0.0 sec)
Calculating ECP integrals                   ... done (  0.2 sec)
Calculating RI/J V-Matrix + Cholesky decomp.... done (  0.0 sec)
Calculating Nuclear repulsion               ... done (  0.0 sec) ENN=    880.405922904846 Eh

SHARK setup successfully completed in   0.6 seconds

Maximum memory used throughout the entire GTOINT-calculation: 89.7 MB
-------------------------------------------------------------------------------
                                 ORCA SCF
-------------------------------------------------------------------------------

------------
SCF SETTINGS
------------
Hamiltonian:
 Density Functional     Method          .... DFT(GTOs)
 Exchange Functional    Exchange        .... PBE
   PBE kappa parameter   XKappa         ....  0.804000
   PBE mue parameter    XMuePBE         ....  0.219520
 Correlation Functional Correlation     .... PBE
   PBE beta parameter  CBetaPBE         ....  0.066725
 LDA part of GGA corr.  LDAOpt          .... PW91-LDA
 Gradients option       PostSCFGGA      .... off
   Density functional embedding theory  .... OFF
   NL short-range parameter             ....  6.400000
 RI-approximation to the Coulomb term is turned on
   Number of AuxJ basis functions       .... 313


General Settings:
 Integral files         IntName         .... SbCl5_ts_opt
 Hartree-Fock type      HFTyp           .... RHF
 Total Charge           Charge          ....    0
 Multiplicity           Mult            ....    1
 Number of Electrons    NEL             ....  108
 Basis Dimension        Dim             ....  235
 Nuclear Repulsion      ENuc            ....    880.4059229048 Eh

Convergence Acceleration:
 DIIS                   CNVDIIS         .... on
   Start iteration      DIISMaxIt       ....    12
   Startup error        DIISStart       ....  0.200000
   # of expansion vecs  DIISMaxEq       ....     5
   Bias factor          DIISBfac        ....   1.050
   Max. coefficient     DIISMaxC        ....  10.000
 Trust-Rad. Augm. Hess. CNVTRAH         .... auto
   Auto Start mean grad. ratio tolernc. ....  1.125000
   Auto Start start iteration           ....    20
   Auto Start num. interpolation iter.  ....    10
   Max. Number of Micro iterations      ....    16
   Max. Number of Macro iterations      .... Maxiter - #DIIS iter
   Number of Davidson start vectors     ....     2
   Converg. threshold I  (grad. norm)   ....   1.000e-05
   Converg. threshold II (energy diff.) ....   1.000e-08
   Grad. Scal. Fac. for Micro threshold ....   0.100
   Minimum threshold for Micro iter.    ....   0.010
   NR start threshold (gradient norm)   ....   0.001
   Initial trust radius                 ....   0.400
   Minimum AH scaling param. (alpha)    ....   1.000
   Maximum AH scaling param. (alpha)    .... 1000.000
   Orbital update algorithm             .... Taylor
   White noise on init. David. guess    .... on
   Maximum white noise                  ....   0.010
   Quad. conv. algorithm                .... NR
 SOSCF                  CNVSOSCF        .... on
   Start iteration      SOSCFMaxIt      ....   150
   Startup grad/error   SOSCFStart      ....  0.003300
 Level Shifting         CNVShift        .... on
   Level shift para.    LevelShift      ....    0.2500
   Turn off err/grad.   ShiftErr        ....    0.0010
 Zerner damping         CNVZerner       .... off
 Static damping         CNVDamp         .... on
   Fraction old density DampFac         ....    0.7000
   Max. Damping (<1)    DampMax         ....    0.9800
   Min. Damping (>=0)   DampMin         ....    0.0000
   Turn off err/grad.   DampErr         ....    0.1000
 Fernandez-Rico         CNVRico         .... off

SCF Procedure:
 Maximum # iterations   MaxIter         ....   125
 SCF integral mode      SCFMode         .... Direct
   Integral package                     .... SHARK and LIBINT hybrid scheme
 Reset frequency        DirectResetFreq ....    20
 Integral Threshold     Thresh          ....  2.500e-11 Eh
 Primitive CutOff       TCut            ....  2.500e-12 Eh

Convergence Tolerance:
 Convergence Check Mode ConvCheckMode   .... Total+1el-Energy
 Convergence forced     ConvForced      .... 0
 Energy Change          TolE            ....  1.000e-08 Eh
 1-El. energy change                    ....  1.000e-05 Eh
 Orbital Gradient       TolG            ....  1.000e-05
 Orbital Rotation angle TolX            ....  1.000e-05
 DIIS Error             TolErr          ....  5.000e-07


Diagonalization of the overlap matrix:
Smallest eigenvalue                        ... 4.059e-03
Time for diagonalization                   ...    0.006 sec
Threshold for overlap eigenvalues          ... 1.000e-08
Number of eigenvalues below threshold      ... 0
Time for construction of square roots      ...    0.004 sec
Total time needed                          ...    0.011 sec

Time for model grid setup =    0.145 sec

------------------------------
INITIAL GUESS: MODEL POTENTIAL
------------------------------
Loading Hartree-Fock densities                     ... done
  calling C:\Users\sandi\Downloads\DFT\orca_files\orca\orca SbCl5_ts_opt_atom51.inp > SbCl5_ts_opt_atom51.out in order to generate an atomic fitting density for atom 0 (Sb with ECP) on-the-fly... 
    atom 0 (Sb), assumed electronic state with S=4: 1s2 2s2 2p6 3s2 3p6 4s2 3d10 4p6 5s2 4d10 5p3           ... done
Calculating cut-offs                               ... done
Initializing the effective Hamiltonian             ... done
Setting up the integral package (SHARK)            ... done
Starting the Coulomb interaction                   ... done (   0.2 sec)
Reading the grid                                   ... done
Mapping shells                                     ... done
Starting the XC term evaluation                    ... done (   0.4 sec)
  promolecular density results
     # of electrons  =    136.003509321
     EX              =   -300.103098570
     EC              =     -6.114726539
     EX+EC           =   -306.217825109
Transforming the Hamiltonian                       ... done (   0.0 sec)
Diagonalizing the Hamiltonian                      ... done (   0.0 sec)
Back transforming the eigenvectors                 ... done (   0.0 sec)
Now organizing SCF variables                       ... done
                      ------------------
                      INITIAL GUESS DONE (   2.5 sec)
                      ------------------
-------------------
DFT GRID GENERATION
-------------------

General Integration Accuracy     IntAcc      ... 4.388
Radial Grid Type                 RadialGrid  ... OptM3 with GC (2021)
Angular Grid (max. ang.)         AngularGrid ... 4 (Lebedev-302)
Angular grid pruning method      GridPruning ... 4 (adaptive)
Weight generation scheme         WeightScheme... Becke
Basis function cutoff            BFCut       ... 1.0000e-11
Integration weight cutoff        WCut        ... 1.0000e-14
Angular grids for H and He will be reduced by one unit
Partially contracted basis set               ... off
Rotationally invariant grid construction     ... off

Total number of grid points                  ...    48418
Total number of batches                      ...      759
Average number of points per batch           ...       63
Average number of grid points per atom       ...     8070
Time for grid setup =    0.592 sec

--------------
SCF ITERATIONS
--------------
ITER       Energy         Delta-E        Max-DP      RMS-DP      [F,P]     Damp
               ***  Starting incremental Fock matrix formation  ***
  0  -2540.4133185082   0.000000000000 0.15363878  0.00122726  0.5259438 0.7000
  1  -2540.4531716160  -0.039853107777 0.10665316  0.00084126  0.3644907 0.7000
  2  -2540.4690123927  -0.015840776728 0.04264253  0.00037721  0.2510660 0.7000
                               ***Turning on DIIS***
  3  -2540.4786930568  -0.009680664048 0.01363017  0.00016104  0.1719950 0.7000
  4  -2540.4857908864  -0.007097829613 0.01148585  0.00009250  0.1181911 0.7000
  5  -2540.4907054077  -0.004914521330 0.02682580  0.00020873  0.0828012 0.0000
                      *** Initiating the SOSCF procedure ***
                           *** Shutting down DIIS ***
                      *** Re-Reading the Fockian *** 
                      *** Removing any level shift *** 
ITER      Energy       Delta-E        Grad      Rot      Max-DP    RMS-DP
  6  -2540.50206451  -0.0113591000  0.000478  0.000478  0.002177  0.000046
               *** Restarting incremental Fock matrix formation ***
  7  -2540.50205941   0.0000051014  0.000916  0.002426  0.007925  0.000075
  8  -2540.50201518   0.0000442222  0.002118  0.001809  0.006215  0.000052
  9  -2540.50207424  -0.0000590603  0.000143  0.000314  0.001137  0.000016
 10  -2540.50207386   0.0000003871  0.000182  0.000233  0.000605  0.000009
 11  -2540.50207510  -0.0000012409  0.000039  0.000143  0.000248  0.000003
 12  -2540.50207505   0.0000000521  0.000059  0.000086  0.000157  0.000002
 13  -2540.50207512  -0.0000000782  0.000005  0.000003  0.000018  0.000000
 14  -2540.50207513  -0.0000000047  0.000004  0.000002  0.000007  0.000000
                  ***Gradient check signals convergence***
              ***Rediagonalizing the Fockian in SOSCF/NRSCF***

               *****************************************************
               *                     SUCCESS                       *
               *           SCF CONVERGED AFTER  15 CYCLES          *
               *****************************************************


----------------
TOTAL SCF ENERGY
----------------

Total Energy       :        -2540.50207513 Eh          -69130.57599 eV

Components:
Nuclear Repulsion  :          880.40592290 Eh           23957.06312 eV
Electronic Energy  :        -3420.90799803 Eh          -93087.63911 eV
One Electron Energy:        -5353.24644069 Eh         -145669.24133 eV
Two Electron Energy:         1932.33844265 Eh           52581.60222 eV

Virial components:
Potential Energy   :        -4930.60532592 Eh         -134168.59192 eV
Kinetic Energy     :         2390.10325079 Eh           65038.01592 eV
Virial Ratio       :            2.06292566


DFT components:
N(Alpha)           :       53.999966102345 electrons
N(Beta)            :       53.999966102345 electrons
N(Total)           :      107.999932204691 electrons
E(X)               :     -155.476309708315 Eh       
E(C)               :       -4.401179101259 Eh       
E(XC)              :     -159.877488809573 Eh       
DFET-embed. en.    :        0.000000000000 Eh       

---------------
SCF CONVERGENCE
---------------

  Last Energy change         ...    5.2887e-10  Tolerance :   1.0000e-08
  Last MAX-Density change    ...    2.8973e-06  Tolerance :   1.0000e-07
  Last RMS-Density change    ...    3.4629e-08  Tolerance :   5.0000e-09
  Last Orbital Gradient      ...    4.7467e-07  Tolerance :   1.0000e-05
  Last Orbital Rotation      ...    7.1744e-07  Tolerance :   1.0000e-05

             **** THE GBW FILE WAS UPDATED (SbCl5_ts_opt.gbw) ****
             **** DENSITY SbCl5_ts_opt.scfp WAS UPDATED ****
             **** ENERGY FILE WAS UPDATED (SbCl5_ts_opt.en.tmp) ****
             **** THE GBW FILE WAS UPDATED (SbCl5_ts_opt.gbw) ****
             **** DENSITY SbCl5_ts_opt.scfp WAS UPDATED ****
----------------
ORBITAL ENERGIES
----------------

  NO   OCC          E(Eh)            E(eV) 
   0   2.0000    -100.704753     -2740.3157 
   1   2.0000    -100.678813     -2739.6098 
   2   2.0000    -100.678813     -2739.6098 
   3   2.0000    -100.678813     -2739.6098 
   4   2.0000    -100.678812     -2739.6098 
   5   2.0000      -9.219146      -250.8657 
   6   2.0000      -9.193894      -250.1786 
   7   2.0000      -9.193894      -250.1786 
   8   2.0000      -9.193894      -250.1786 
   9   2.0000      -9.193890      -250.1785 
  10   2.0000      -7.041442      -191.6074 
  11   2.0000      -7.032788      -191.3719 
  12   2.0000      -7.032788      -191.3719 
  13   2.0000      -7.015906      -190.9125 
  14   2.0000      -7.015905      -190.9125 
  15   2.0000      -7.015905      -190.9125 
  16   2.0000      -7.015902      -190.9124 
  17   2.0000      -7.008190      -190.7025 
  18   2.0000      -7.008187      -190.7025 
  19   2.0000      -7.008186      -190.7024 
  20   2.0000      -7.008186      -190.7024 
  21   2.0000      -7.006996      -190.6701 
  22   2.0000      -7.006996      -190.6701 
  23   2.0000      -7.006996      -190.6701 
  24   2.0000      -7.006993      -190.6700 
  25   2.0000      -5.631432      -153.2391 
  26   2.0000      -3.900892      -106.1487 
  27   2.0000      -3.898500      -106.0836 
  28   2.0000      -3.898500      -106.0836 
  29   2.0000      -1.342338       -36.5269 
  30   2.0000      -1.340629       -36.4804 
  31   2.0000      -1.339438       -36.4480 
  32   2.0000      -1.339438       -36.4480 
  33   2.0000      -1.337073       -36.3836 
  34   2.0000      -0.826674       -22.4949 
  35   2.0000      -0.781373       -21.2622 
  36   2.0000      -0.770350       -20.9623 
  37   2.0000      -0.770350       -20.9623 
  38   2.0000      -0.744584       -20.2612 
  39   2.0000      -0.564227       -15.3534 
  40   2.0000      -0.421055       -11.4575 
  41   2.0000      -0.421055       -11.4575 
  42   2.0000      -0.420972       -11.4552 
  43   2.0000      -0.348236        -9.4760 
  44   2.0000      -0.338474        -9.2103 
  45   2.0000      -0.338474        -9.2103 
  46   2.0000      -0.328776        -8.9464 
  47   2.0000      -0.327333        -8.9072 
  48   2.0000      -0.313032        -8.5180 
  49   2.0000      -0.313032        -8.5180 
  50   2.0000      -0.299859        -8.1596 
  51   2.0000      -0.299191        -8.1414 
  52   2.0000      -0.299191        -8.1414 
  53   2.0000      -0.272351        -7.4110 
  54   0.0000      -0.186758        -5.0819 
  55   0.0000      -0.092183        -2.5084 
  56   0.0000      -0.039290        -1.0691 
  57   0.0000      -0.039290        -1.0691 
  58   0.0000       0.078837         2.1453 
  59   0.0000       0.082553         2.2464 
  60   0.0000       0.082553         2.2464 
  61   0.0000       0.105838         2.8800 
  62   0.0000       0.123823         3.3694 
  63   0.0000       0.130988         3.5644 
  64   0.0000       0.130988         3.5644 
  65   0.0000       0.165623         4.5068 
  66   0.0000       0.181477         4.9382 
  67   0.0000       0.232031         6.3139 
  68   0.0000       0.232031         6.3139 
  69   0.0000       0.235974         6.4212 
  70   0.0000       0.248776         6.7695 
  71   0.0000       0.263474         7.1695 
  72   0.0000       0.263474         7.1695 
  73   0.0000       0.269599         7.3362 
  74   0.0000       0.273809         7.4507 
  75   0.0000       0.273809         7.4507 
  76   0.0000       0.287780         7.8309 
  77   0.0000       0.289580         7.8799 
  78   0.0000       0.296247         8.0613 
  79   0.0000       0.299026         8.1369 
  80   0.0000       0.299026         8.1369 
  81   0.0000       0.305192         8.3047 
  82   0.0000       0.324699         8.8355 
  83   0.0000       0.327047         8.8994 
  84   0.0000       0.327047         8.8994 
  85   0.0000       0.343619         9.3503 
  86   0.0000       0.354336         9.6420 
  87   0.0000       0.379759        10.3338 
  88   0.0000       0.381730        10.3874 
  89   0.0000       0.381730        10.3874 
  90   0.0000       0.388791        10.5796 
  91   0.0000       0.425069        11.5667 
  92   0.0000       0.444770        12.1028 
  93   0.0000       0.448160        12.1951 
  94   0.0000       0.448160        12.1951 
  95   0.0000       0.481366        13.0986 
  96   0.0000       0.515322        14.0226 
  97   0.0000       0.532482        14.4896 
  98   0.0000       0.532482        14.4896 
  99   0.0000       0.552686        15.0394 
 100   0.0000       0.552686        15.0394 
 101   0.0000       0.569784        15.5046 
 102   0.0000       0.580144        15.7865 
 103   0.0000       0.586785        15.9672 
 104   0.0000       0.645579        17.5671 
 105   0.0000       0.681829        18.5535 
 106   0.0000       0.681829        18.5535 
 107   0.0000       0.781336        21.2612 
 108   0.0000       0.785747        21.3813 
 109   0.0000       0.785747        21.3813 
 110   0.0000       0.795667        21.6512 
 111   0.0000       0.839724        22.8501 
 112   0.0000       0.839724        22.8501 
 113   0.0000       0.856297        23.3010 
 114   0.0000       0.884028        24.0556 
 115   0.0000       0.884961        24.0810 
 116   0.0000       0.884961        24.0810 
 117   0.0000       1.040037        28.3009 
 118   0.0000       1.064819        28.9752 
 119   0.0000       1.082476        29.4557 
 120   0.0000       1.122030        30.5320 
 121   0.0000       1.122030        30.5320 
 122   0.0000       1.177019        32.0283 
 123   0.0000       1.201543        32.6956 
 124   0.0000       1.201543        32.6956 
 125   0.0000       1.205684        32.8083 
 126   0.0000       1.211223        32.9590 
 127   0.0000       1.585237        43.1365 
 128   0.0000       1.610234        43.8167 
 129   0.0000       1.610234        43.8167 
 130   0.0000       1.613462        43.9045 
 131   0.0000       1.636548        44.5327 
 132   0.0000       1.643068        44.7101 
 133   0.0000       1.643068        44.7101 
 134   0.0000       1.651955        44.9520 
 135   0.0000       1.669946        45.4415 
 136   0.0000       1.694435        46.1079 
 137   0.0000       1.702320        46.3225 
 138   0.0000       1.702320        46.3225 
 139   0.0000       1.707453        46.4622 
 140   0.0000       1.746517        47.5252 
 141   0.0000       1.755723        47.7757 
 142   0.0000       1.765605        48.0445 
 143   0.0000       1.784027        48.5458 
 144   0.0000       1.784027        48.5458 
 145   0.0000       1.785341        48.5816 
 146   0.0000       1.789843        48.7041 
 147   0.0000       1.802896        49.0593 
 148   0.0000       1.802896        49.0593 
 149   0.0000       1.827223        49.7213 
 150   0.0000       1.848665        50.3047 
 151   0.0000       1.848665        50.3047 
 152   0.0000       1.935267        52.6613 
 153   0.0000       1.936609        52.6978 
 154   0.0000       1.939821        52.7852 
 155   0.0000       1.939821        52.7852 
 156   0.0000       1.946023        52.9540 
 157   0.0000       1.946195        52.9586 
 158   0.0000       1.951737        53.1095 
 159   0.0000       1.958669        53.2981 
 160   0.0000       1.958669        53.2981 
 161   0.0000       1.968143        53.5559 
 162   0.0000       1.968143        53.5559 
 163   0.0000       1.975358        53.7522 
 164   0.0000       1.975598        53.7588 
 165   0.0000       1.975598        53.7588 
 166   0.0000       1.977254        53.8038 
 167   0.0000       1.978034        53.8250 
 168   0.0000       1.981740        53.9259 
 169   0.0000       1.981740        53.9259 
 170   0.0000       1.981830        53.9283 
 171   0.0000       1.982220        53.9390 
 172   0.0000       1.985193        54.0199 
 173   0.0000       1.985193        54.0199 
 174   0.0000       2.001421        54.4614 
 175   0.0000       2.005533        54.5733 
 176   0.0000       2.010766        54.7157 
 177   0.0000       2.023009        55.0489 
 178   0.0000       2.023009        55.0489 
 179   0.0000       2.094287        56.9885 
 180   0.0000       2.094287        56.9885 
 181   0.0000       2.132573        58.0303 
 182   0.0000       2.137492        58.1641 
 183   0.0000       2.149006        58.4774 
 184   0.0000       2.155898        58.6650 
 185   0.0000       2.155898        58.6650 
 186   0.0000       2.164496        58.8989 
 187   0.0000       2.197044        59.7846 
 188   0.0000       2.202651        59.9372 
 189   0.0000       2.202651        59.9372 
 190   0.0000       2.206688        60.0470 
 191   0.0000       2.214313        60.2545 
 192   0.0000       2.214313        60.2545 
 193   0.0000       2.236927        60.8699 
 194   0.0000       2.288208        62.2653 
 195   0.0000       2.288208        62.2653 
 196   0.0000       2.311538        62.9002 
 197   0.0000       2.442434        66.4620 
 198   0.0000       2.502456        68.0953 
 199   0.0000       2.502456        68.0953 
 200   0.0000       2.604071        70.8604 
 201   0.0000       2.645134        71.9777 
 202   0.0000       2.658713        72.3473 
 203   0.0000       2.700599        73.4870 
 204   0.0000       2.700599        73.4870 
 205   0.0000       2.776338        75.5480 
 206   0.0000       2.974779        80.9478 
 207   0.0000       3.039643        82.7129 
 208   0.0000       3.039643        82.7129 
 209   0.0000       3.917167       106.5915 
 210   0.0000      10.484708       285.3034 
 211   0.0000      10.484708       285.3034 
 212   0.0000      10.500129       285.7230 
 213   0.0000      10.500129       285.7230 
 214   0.0000      10.502313       285.7825 
 215   0.0000      10.512864       286.0696 
 216   0.0000      10.539753       286.8012 
 217   0.0000      10.546534       286.9858 
 218   0.0000      10.546534       286.9858 
 219   0.0000      10.549545       287.0677 
 220   0.0000      10.699944       291.1603 
 221   0.0000      10.732580       292.0484 
 222   0.0000      10.791764       293.6588 
 223   0.0000      10.791764       293.6588 
 224   0.0000      10.834434       294.8199 
 225   0.0000      24.610703       669.6913 
 226   0.0000      24.729747       672.9306 
 227   0.0000      24.744559       673.3337 
 228   0.0000      24.744559       673.3337 
 229   0.0000      24.868250       676.6995 
 230   0.0000      39.020145      1061.7921 
 231   0.0000      39.042591      1062.4029 
 232   0.0000      39.042591      1062.4029 
 233   0.0000      39.999278      1088.4357 
 234   0.0000     112.715520      3067.1452 

                    ********************************
                    * MULLIKEN POPULATION ANALYSIS *
                    ********************************

-----------------------
MULLIKEN ATOMIC CHARGES
-----------------------
   0 Sb:    1.033770
   1 Cl:   -0.188131
   2 Cl:   -0.211410
   3 Cl:   -0.211410
   4 Cl:   -0.211410
   5 Cl:   -0.211410
Sum of atomic charges:   -0.0000000

--------------------------------
MULLIKEN REDUCED ORBITAL CHARGES
--------------------------------
  0 Sbs       :     3.305224  s :     3.305224
      pz      :     2.641563  p :     7.894190
      px      :     2.641563
      py      :     2.611065
      dz2     :     2.127670  d :    10.599387
      dxz     :     2.127926
      dyz     :     2.121826
      dx2y2   :     2.100139
      dxy     :     2.121826
      f0      :     0.036578  f :     0.167429
      f+1     :     0.028996
      f-1     :     0.024818
      f+2     :     0.021091
      f-2     :     0.005740
      f+3     :     0.028672
      f-3     :     0.021534
  1 Cls       :     5.959220  s :     5.959220
      pz      :     3.893233  p :    11.190313
      px      :     3.893233
      py      :     3.403846
      dz2     :     0.005763  d :     0.036035
      dxz     :     0.000071
      dyz     :     0.006980
      dx2y2   :     0.016241
      dxy     :     0.006980
      f0      :     0.000215  f :     0.002563
      f+1     :     0.000039
      f-1     :     0.000533
      f+2     :     0.000362
      f-2     :     0.000008
      f+3     :     0.000538
      f-3     :     0.000869
  2 Cls       :     5.956025  s :     5.956025
      pz      :     3.921792  p :    11.216300
      px      :     3.449472
      py      :     3.845036
      dz2     :     0.006858  d :     0.036649
      dxz     :     0.007468
      dyz     :     0.000842
      dx2y2   :     0.012726
      dxy     :     0.008754
      f0      :     0.000206  f :     0.002436
      f+1     :     0.000591
      f-1     :     0.000075
      f+2     :     0.000255
      f-2     :     0.000097
      f+3     :     0.000603
      f-3     :     0.000610
  3 Cls       :     5.956025  s :     5.956025
      pz      :     3.921792  p :    11.216300
      px      :     3.449472
      py      :     3.845036
      dz2     :     0.006858  d :     0.036649
      dxz     :     0.007468
      dyz     :     0.000842
      dx2y2   :     0.012726
      dxy     :     0.008754
      f0      :     0.000206  f :     0.002436
      f+1     :     0.000591
      f-1     :     0.000075
      f+2     :     0.000255
      f-2     :     0.000097
      f+3     :     0.000603
      f-3     :     0.000610
  4 Cls       :     5.956025  s :     5.956025
      pz      :     3.449472  p :    11.216300
      px      :     3.921792
      py      :     3.845036
      dz2     :     0.017512  d :     0.036649
      dxz     :     0.007468
      dyz     :     0.008754
      dx2y2   :     0.002072
      dxy     :     0.000842
      f0      :     0.001015  f :     0.002436
      f+1     :     0.000440
      f-1     :     0.000671
      f+2     :     0.000180
      f-2     :     0.000097
      f+3     :     0.000021
      f-3     :     0.000014
  5 Cls       :     5.956025  s :     5.956025
      pz      :     3.449472  p :    11.216300
      px      :     3.921792
      py      :     3.845036
      dz2     :     0.017512  d :     0.036649
      dxz     :     0.007468
      dyz     :     0.008754
      dx2y2   :     0.002072
      dxy     :     0.000842
      f0      :     0.001015  f :     0.002436
      f+1     :     0.000440
      f-1     :     0.000671
      f+2     :     0.000180
      f-2     :     0.000097
      f+3     :     0.000021
      f-3     :     0.000014


                     *******************************
                     * LOEWDIN POPULATION ANALYSIS *
                     *******************************

----------------------
LOEWDIN ATOMIC CHARGES
----------------------
   0 Sb:   -0.423112
   1 Cl:    0.129549
   2 Cl:    0.073391
   3 Cl:    0.073391
   4 Cl:    0.073391
   5 Cl:    0.073391

-------------------------------
LOEWDIN REDUCED ORBITAL CHARGES
-------------------------------
  0 Sbs       :     3.059703  s :     3.059703
      pz      :     2.835335  p :     8.452490
      px      :     2.835335
      py      :     2.781820
      dz2     :     2.448349  d :    11.478492
      dxz     :     2.207347
      dyz     :     2.234492
      dx2y2   :     2.353812
      dxy     :     2.234492
      f0      :     0.097124  f :     0.432426
      f+1     :     0.072636
      f-1     :     0.073337
      f+2     :     0.044350
      f-2     :     0.010641
      f+3     :     0.068838
      f-3     :     0.065500
  1 Cls       :     5.701275  s :     5.701275
      pz      :     3.841025  p :    11.111164
      px      :     3.841025
      py      :     3.429115
      dz2     :     0.010063  d :     0.053639
      dxz     :     0.000053
      dyz     :     0.007186
      dx2y2   :     0.029151
      dxy     :     0.007186
      f0      :     0.000239  f :     0.004373
      f+1     :     0.000044
      f-1     :     0.001159
      f+2     :     0.000408
      f-2     :     0.000005
      f+3     :     0.000603
      f-3     :     0.001913
  2 Cls       :     5.714591  s :     5.714591
      pz      :     3.879944  p :    11.152059
      px      :     3.469711
      py      :     3.802404
      dz2     :     0.010978  d :     0.055759
      dxz     :     0.009304
      dyz     :     0.000868
      dx2y2   :     0.023097
      dxy     :     0.011511
      f0      :     0.000243  f :     0.004200
      f+1     :     0.001136
      f-1     :     0.000110
      f+2     :     0.000333
      f-2     :     0.000114
      f+3     :     0.001184
      f-3     :     0.001081
  3 Cls       :     5.714591  s :     5.714591
      pz      :     3.879944  p :    11.152059
      px      :     3.469711
      py      :     3.802404
      dz2     :     0.010978  d :     0.055759
      dxz     :     0.009304
      dyz     :     0.000868
      dx2y2   :     0.023097
      dxy     :     0.011511
      f0      :     0.000243  f :     0.004200
      f+1     :     0.001136
      f-1     :     0.000110
      f+2     :     0.000333
      f-2     :     0.000114
      f+3     :     0.001184
      f-3     :     0.001081
  4 Cls       :     5.714591  s :     5.714591
      pz      :     3.469711  p :    11.152059
      px      :     3.879944
      py      :     3.802404
      dz2     :     0.031597  d :     0.055759
      dxz     :     0.009304
      dyz     :     0.011511
      dx2y2   :     0.002477
      dxy     :     0.000868
      f0      :     0.002100  f :     0.004200
      f+1     :     0.000546
      f-1     :     0.001176
      f+2     :     0.000220
      f-2     :     0.000114
      f+3     :     0.000029
      f-3     :     0.000015
  5 Cls       :     5.714591  s :     5.714591
      pz      :     3.469711  p :    11.152059
      px      :     3.879944
      py      :     3.802404
      dz2     :     0.031597  d :     0.055759
      dxz     :     0.009304
      dyz     :     0.011511
      dx2y2   :     0.002477
      dxy     :     0.000868
      f0      :     0.002100  f :     0.004200
      f+1     :     0.000546
      f-1     :     0.001176
      f+2     :     0.000220
      f-2     :     0.000114
      f+3     :     0.000029
      f-3     :     0.000015


                      *****************************
                      * MAYER POPULATION ANALYSIS *
                      *****************************

  NA   - Mulliken gross atomic population
  ZA   - Total nuclear charge
  QA   - Mulliken gross atomic charge
  VA   - Mayer's total valence
  BVA  - Mayer's bonded valence
  FA   - Mayer's free valence

  ATOM       NA         ZA         QA         VA         BVA        FA
  0 Sb    21.9662    23.0000     1.0338     5.0827     5.0827    -0.0000
  1 Cl    17.1881    17.0000    -0.1881     1.2433     1.2433    -0.0000
  2 Cl    17.2114    17.0000    -0.2114     1.2083     1.2083     0.0000
  3 Cl    17.2114    17.0000    -0.2114     1.2083     1.2083     0.0000
  4 Cl    17.2114    17.0000    -0.2114     1.2083     1.2083    -0.0000
  5 Cl    17.2114    17.0000    -0.2114     1.2083     1.2083     0.0000

  Mayer bond orders larger than 0.100000
B(  0-Sb,  1-Cl) :   1.0530 B(  0-Sb,  2-Cl) :   1.0074 B(  0-Sb,  3-Cl) :   1.0074 
B(  0-Sb,  4-Cl) :   1.0074 B(  0-Sb,  5-Cl) :   1.0074 

-------
TIMINGS
-------

Total SCF time: 0 days 0 hours 0 min 19 sec 

Total time                  ....      19.831 sec
Sum of individual times     ....      19.438 sec  ( 98.0%)

Fock matrix formation       ....      16.018 sec  ( 80.8%)
  Split-RI-J                ....       5.050 sec  ( 31.5% of F)
  XC integration            ....      10.873 sec  ( 67.9% of F)
    Basis function eval.    ....       3.391 sec  ( 31.2% of XC)
    Density eval.           ....       3.337 sec  ( 30.7% of XC)
    XC-Functional eval.     ....       0.544 sec  (  5.0% of XC)
    XC-Potential eval.      ....       2.995 sec  ( 27.5% of XC)
Diagonalization             ....       0.090 sec  (  0.5%)
Density matrix formation    ....       0.028 sec  (  0.1%)
Population analysis         ....       0.067 sec  (  0.3%)
Initial guess               ....       2.310 sec  ( 11.6%)
Orbital Transformation      ....       0.000 sec  (  0.0%)
Orbital Orthonormalization  ....       0.000 sec  (  0.0%)
DIIS solution               ....       0.080 sec  (  0.4%)
SOSCF solution              ....       0.108 sec  (  0.5%)
Grid generation             ....       0.737 sec  (  3.7%)

Maximum memory used throughout the entire SCF-calculation: 105.7 MB

-------------------------   --------------------
FINAL SINGLE POINT ENERGY     -2540.502075128474
-------------------------   --------------------

------------------------------------------------------------------------------
                         ORCA SCF GRADIENT CALCULATION
------------------------------------------------------------------------------

Gradient of the Kohn-Sham DFT energy:
Kohn-Sham wavefunction type      ... RKS
Hartree-Fock exchange scaling    ...    0.000
Number of operators              ...    1
Number of atoms                  ...    6
Basis set dimensions             ...  235
Integral neglect threshold       ... 2.5e-11
Integral primitive cutoff        ... 2.5e-12
SHARK Integral package           ... ON

Nuc. rep. gradient       (SHARK) ... done (  0.0 sec)
HCore & Overlap gradient (SHARK) ... done (  0.1 sec)
ECP gradient             (SHARK) ... done (  1.1 sec)
RI-J gradient            (SHARK) ... done (  2.3 sec)
Exchange-correlation gradient    ... done

------------------
CARTESIAN GRADIENT
------------------

   1   Sb  :   -0.000000001    0.007653636    0.000000003
   2   Cl  :   -0.000000001   -0.010419737    0.000000000
   3   Cl  :   -0.018829312    0.000691526   -0.000000003
   4   Cl  :    0.018829317    0.000691525    0.000000001
   5   Cl  :   -0.000000003    0.000691527   -0.018829318
   6   Cl  :   -0.000000000    0.000691524    0.018829317

Difference to translation invariance:
           :    0.0000000000   -0.0000000001    0.0000000000

Difference to rotation invariance:
           :   -0.0000000089    0.0000000054    0.0000000089

Norm of the cartesian gradient     ...    0.0398401112
RMS gradient                       ...    0.0093904043
MAX gradient                       ...    0.0188293180

-------
TIMINGS
-------

Total SCF gradient time            ...        6.693 sec

One electron gradient       ....       1.239 sec  ( 18.5%)
RI-J Coulomb gradient       ....       2.305 sec  ( 34.4%)
XC gradient                 ....       3.027 sec  ( 45.2%)

Maximum memory used throughout the entire SCFGRAD-calculation: 105.9 MB
------------------------------------------------------------------------------
                         ORCA GEOMETRY RELAXATION STEP
------------------------------------------------------------------------------

Reading the OPT-File                    .... done
Getting information on internals        .... done
Copying old internal coords+grads       .... done
Making the new internal coordinates     .... (new redundants).... done
Validating the new internal coordinates .... (new redundants).... done
Calculating the B-matrix                .... done
Calculating the G,G- and P matrices     .... done
Transforming gradient to internals      .... done
Projecting the internal gradient        .... done
Number of atoms                         ....   6
Number of internal coordinates          ....  15
Current Energy                          .... -2540.502075128 Eh
Current gradient norm                   ....     0.039840111 Eh/bohr
Maximum allowed component of the step   ....  0.300
Current trust radius                    ....  0.300
Evaluating the initial hessian          ....  (read) 
(Reading Exact Hessian)...  
InHessName: SbCl5_ts_guess.hess	The file <SbCl5_ts_guess.hess> is opened as a .hess file
done
done
Diagonalizing the Hessian               .... done
Dimension of the hessian                .... 15
Lowest eigenvalues of the non projected Hessian:
 -0.051696132 -0.000000858 -0.000000000  0.000001131  0.081247174
done
Projecting the Hessian                  .... done
Diagonalizing the Hessian               .... done
Dimension of the hessian                ....  15
Lowest eigenvalues of the Hessian:
 -0.051672764  0.081193566  0.083147807  0.083147881  0.130236811
Hessian has   1 negative eigenvalues
Taking P-RFO step
Searching for lambda that maximizes along the lowest mode
TS mode is mode number   0 with eigenvalue  -0.05167276 and components:
   1.    0.00000002
   2.    0.02091185
   3.    0.02091185
   4.   -0.02091212
   5.   -0.02091214
   6.   -0.28842250
   7.    0.57684498
   8.    0.28842261
   9.   -0.00000003
  10.   -0.00000002
  11.    0.28842258
  12.   -0.00000003
  13.   -0.00000001
  14.   -0.57684519
  15.   -0.28842248

Lambda that maximizes along the TS mode:       0.00000000
Searching for lambda that minimizes along all other modes
In cycle   1: lambdaN =  -0.01051586   step =   0.01051586
In cycle   2: lambdaN =  -0.01057362   step =   0.00005776
In cycle   3: lambdaN =  -0.01057362   step =   0.00000000
Lambda that minimizes along all other modes:  -0.01057362
The final length of the internal step   ....       0.2560
Converting the step to cartesian space:
 Initial RMS(Int)=    0.0661036237
Transforming coordinates:
 Iter   0:  RMS(Cart)=    0.0792902646 RMS(Int)=    0.0671508076
 Iter   1:  RMS(Cart)=    0.0025945008 RMS(Int)=    0.0029244219
 Iter   2:  RMS(Cart)=    0.0001431485 RMS(Int)=    0.0001555888
 Iter   3:  RMS(Cart)=    0.0000046374 RMS(Int)=    0.0000035887
 Iter   4:  RMS(Cart)=    0.0000003752 RMS(Int)=    0.0000004366
 Iter   5:  RMS(Cart)=    0.0000000148 RMS(Int)=    0.0000000137
done
Storing new coordinates                 .... done

                                .--------------------.
          ----------------------|Geometry convergence|-------------------------
          Item                value                   Tolerance       Converged
          ---------------------------------------------------------------------
          RMS gradient        0.0111702666            0.0001000000      NO
          MAX gradient        0.0183667611            0.0003000000      NO
          RMS step            0.0661036237            0.0020000000      NO
          MAX step            0.1006180941            0.0040000000      NO
          ........................................................
          Max(Bonds)      0.0451      Max(Angles)    5.76
          Max(Dihed)        0.00      Max(Improp)    0.00
          ---------------------------------------------------------------------

The optimization has not yet converged - more geometry cycles are needed


    ---------------------------------------------------------------------------
                         Redundant Internal Coordinates
                            (Angstroem and degrees)

        Definition                    Value    dE/dq     Step     New-Value  comp.(TS mode)
    ----------------------------------------------------------------------------
     1. B(Cl  1,Sb  0)                2.2770 -0.010420  0.0319    2.3089   
     2. B(Cl  2,Sb  0)                2.3075 -0.018367  0.0451    2.3526   
     3. B(Cl  3,Sb  0)                2.3075 -0.018367  0.0451    2.3526   
     4. B(Cl  4,Sb  0)                2.3075 -0.018367  0.0451    2.3526   
     5. B(Cl  5,Sb  0)                2.3075 -0.018367  0.0451    2.3526   
     6. A(Cl  1,Sb  0,Cl  3)          105.00  0.005640   -2.88    102.12          0.29
     7. A(Cl  2,Sb  0,Cl  3)          150.00 -0.011280    5.76    155.77          0.58
     8. A(Cl  1,Sb  0,Cl  4)          105.00  0.005640   -2.88    102.12          0.29
     9. A(Cl  2,Sb  0,Cl  4)           86.16 -0.002826    1.44     87.60   
    10. A(Cl  3,Sb  0,Cl  4)           86.16 -0.002826    1.44     87.60   
    11. A(Cl  1,Sb  0,Cl  5)          105.00  0.005640   -2.88    102.12          0.29
    12. A(Cl  2,Sb  0,Cl  5)           86.16 -0.002826    1.44     87.60   
    13. A(Cl  3,Sb  0,Cl  5)           86.16 -0.002826    1.44     87.60   
    14. A(Cl  4,Sb  0,Cl  5)          150.00 -0.011280    5.76    155.77          0.58
    15. A(Cl  1,Sb  0,Cl  2)          105.00  0.005640   -2.88    102.12          0.29
    ----------------------------------------------------------------------------

         *************************************************************
         *                GEOMETRY OPTIMIZATION CYCLE   2            *
         *************************************************************
---------------------------------
CARTESIAN COORDINATES (ANGSTROEM)
---------------------------------
  Sb    -0.000000   -0.074771   -0.000000
  Cl    -0.000000    2.234083   -0.000000
  Cl     2.300345   -0.567778    0.000000
  Cl    -2.300345   -0.567778   -0.000000
  Cl     0.000000   -0.567778    2.300345
  Cl    -0.000000   -0.567778   -2.300345

----------------------------
CARTESIAN COORDINATES (A.U.)
----------------------------
  NO LB      ZA    FRAG     MASS         X           Y           Z
   0 Sb   23.0000*   0   121.750   -0.000000   -0.141297   -0.000000
   1 Cl   17.0000    0    35.453   -0.000000    4.221806   -0.000000
   2 Cl   17.0000    0    35.453    4.347023   -1.072945    0.000000
   3 Cl   17.0000    0    35.453   -4.347023   -1.072945   -0.000000
   4 Cl   17.0000    0    35.453    0.000000   -1.072946    4.347023
   5 Cl   17.0000    0    35.453   -0.000000   -1.072946   -4.347023
* core charge reduced due to ECP

--------------------------------
INTERNAL COORDINATES (ANGSTROEM)
--------------------------------
 Sb     0   0   0     0.000000000000     0.00000000     0.00000000
 Cl     1   0   0     2.308854394124     0.00000000     0.00000000
 Cl     1   2   0     2.352582571714   102.09655750     0.00000000
 Cl     1   2   3     2.352582572652   102.09655735   179.99999879
 Cl     1   2   3     2.352582716335   102.09657180    89.99999858
 Cl     1   2   3     2.352582706315   102.09656964   269.99999901

---------------------------
INTERNAL COORDINATES (A.U.)
---------------------------
 Sb     0   0   0     0.000000000000     0.00000000     0.00000000
 Cl     1   0   0     4.363102487995     0.00000000     0.00000000
 Cl     1   2   0     4.445736767976   102.09655750     0.00000000
 Cl     1   2   3     4.445736769748   102.09655735   179.99999879
 Cl     1   2   3     4.445737041270   102.09657180    89.99999858
 Cl     1   2   3     4.445737022334   102.09656964   269.99999901

------------------------------------------------------------------------------
                   ___                                                        
                  /   \      - P O W E R E D   B Y -                         
                 /     \                                                     
                 |  |  |   _    _      __       _____    __    __             
                 |  |  |  | |  | |    /  \     |  _  \  |  |  /  |          
                  \  \/   | |  | |   /    \    | | | |  |  | /  /          
                 / \  \   | |__| |  /  /\  \   | |_| |  |  |/  /          
                |  |  |   |  __  | /  /__\  \  |    /   |      \           
                |  |  |   | |  | | |   __   |  |    \   |  |\   \          
                \     /   | |  | | |  |  |  |  | |\  \  |  | \   \       
                 \___/    |_|  |_| |__|  |__|  |_| \__\ |__|  \__/        
                                                                              
                      - O R C A' S   B I G   F R I E N D -                    
                                      &                                       
                       - I N T E G R A L  F E E D E R -                       
                                                                              
 v1 FN, 2020, v2 2021                                                         
------------------------------------------------------------------------------


Reading SHARK input file SbCl5_ts_opt.SHARKINP.tmp ... ok
----------------------
SHARK INTEGRAL PACKAGE
----------------------

Number of atoms                             ...      6
Number of basis functions                   ...    235
Number of shells                            ...     81
Maximum angular momentum                    ...      3
Integral batch strategy                     ... SHARK/LIBINT Hybrid
RI-J (if used) integral strategy            ... SPLIT-RIJ (Revised 2003 algorithm where possible)
Printlevel                                  ...      1
Contraction scheme used                     ... SEGMENTED contraction
Coulomb Range Separation                    ... NOT USED
Exchange Range Separation                   ... NOT USED
Finite Nucleus Model                        ... NOT USED
Auxiliary Coulomb fitting basis             ... AVAILABLE
   # of basis functions in Aux-J            ...    313
   # of shells in Aux-J                     ...    103
   Maximum angular momentum in Aux-J        ...      4
Auxiliary J/K fitting basis                 ... NOT available
Auxiliary Correlation fitting basis         ... NOT available
Auxiliary 'external' fitting basis          ... NOT available
Integral threshold                          ...     2.500000e-11
Primitive cut-off                           ...     2.500000e-12
Primitive pair pre-selection threshold      ...     2.500000e-12

Calculating pre-screening integrals         ... done (  0.1 sec) Dimension = 81
Organizing shell pair data                  ... done (  0.1 sec)
Shell pair information
Total number of shell pairs                 ...      3321
Shell pairs after pre-screening             ...      2753
Total number of primitive shell pairs       ...     13738
Primitive shell pairs kept                  ...      7681
          la=0 lb=0:    354 shell pairs
          la=1 lb=0:    706 shell pairs
          la=1 lb=1:    381 shell pairs
          la=2 lb=0:    351 shell pairs
          la=2 lb=1:    354 shell pairs
          la=2 lb=2:     89 shell pairs
          la=3 lb=0:    197 shell pairs
          la=3 lb=1:    202 shell pairs
          la=3 lb=2:     91 shell pairs
          la=3 lb=3:     28 shell pairs

Calculating one electron integrals          ... done (  0.0 sec)
Calculating ECP integrals                   ... done (  0.3 sec)
Calculating RI/J V-Matrix + Cholesky decomp.... done (  0.0 sec)
Calculating Nuclear repulsion               ... done (  0.0 sec) ENN=    864.679248926603 Eh

SHARK setup successfully completed in   0.7 seconds

Maximum memory used throughout the entire GTOINT-calculation: 89.2 MB

Diagonalization of the overlap matrix:
Smallest eigenvalue                        ... 4.335e-03
Time for diagonalization                   ...    0.007 sec
Threshold for overlap eigenvalues          ... 1.000e-08
Number of eigenvalues below threshold      ... 0
Time for construction of square roots      ...    0.007 sec
Total time needed                          ...    0.015 sec

-------------------
DFT GRID GENERATION
-------------------

General Integration Accuracy     IntAcc      ... 4.388
Radial Grid Type                 RadialGrid  ... OptM3 with GC (2021)
Angular Grid (max. ang.)         AngularGrid ... 4 (Lebedev-302)
Angular grid pruning method      GridPruning ... 4 (adaptive)
Weight generation scheme         WeightScheme... Becke
Basis function cutoff            BFCut       ... 1.0000e-11
Integration weight cutoff        WCut        ... 1.0000e-14
Angular grids for H and He will be reduced by one unit
Partially contracted basis set               ... off
Rotationally invariant grid construction     ... off

Total number of grid points                  ...    48475
Total number of batches                      ...      762
Average number of points per batch           ...       63
Average number of grid points per atom       ...     8079
Time for grid setup =    0.593 sec

--------------
SCF ITERATIONS
--------------
ITER       Energy         Delta-E        Max-DP      RMS-DP      [F,P]     Damp
               ***  Starting incremental Fock matrix formation  ***
  0  -2540.5041438253   0.000000000000 0.00621606  0.00013231  0.0518426 0.7000
  1  -2540.5051167800  -0.000972954700 0.00664613  0.00013568  0.0363857 0.7000
                               ***Turning on DIIS***
  2  -2540.5058888116  -0.000772031598 0.01834712  0.00038111  0.0255093 0.0000
                      *** Initiating the SOSCF procedure ***
                           *** Shutting down DIIS ***
                      *** Re-Reading the Fockian *** 
                      *** Removing any level shift *** 
ITER      Energy       Delta-E        Grad      Rot      Max-DP    RMS-DP
  3  -2540.50772246  -0.0018336524  0.001152  0.001152  0.003145  0.000057
               *** Restarting incremental Fock matrix formation ***
  4  -2540.50775638  -0.0000339196  0.001017  0.008352  0.003342  0.000084
  5  -2540.50775708  -0.0000007009  0.001210  0.001788  0.002294  0.000034
  6  -2540.50777589  -0.0000188070  0.000317  0.001307  0.000845  0.000019
  7  -2540.50777574   0.0000001466  0.000252  0.000258  0.000421  0.000008
  8  -2540.50777763  -0.0000018882  0.000065  0.000366  0.000613  0.000007
  9  -2540.50777755   0.0000000856  0.000095  0.000161  0.000424  0.000004
 10  -2540.50777774  -0.0000001913  0.000014  0.000160  0.000071  0.000002
 11  -2540.50777774   0.0000000006  0.000017  0.000066  0.000031  0.000001
                  ***Gradient check signals convergence***
              ***Rediagonalizing the Fockian in SOSCF/NRSCF***

               *****************************************************
               *                     SUCCESS                       *
               *           SCF CONVERGED AFTER  12 CYCLES          *
               *****************************************************

Total Energy       :        -2540.50777775 Eh          -69130.73117 eV
  Last Energy change         ...   -1.2394e-08  Tolerance :   1.0000e-08
  Last MAX-Density change    ...    7.5063e-06  Tolerance :   1.0000e-07
             **** THE GBW FILE WAS UPDATED (SbCl5_ts_opt.gbw) ****
             **** DENSITY SbCl5_ts_opt.scfp WAS UPDATED ****
             **** ENERGY FILE WAS UPDATED (SbCl5_ts_opt.en.tmp) ****
             **** THE GBW FILE WAS UPDATED (SbCl5_ts_opt.gbw) ****
             **** DENSITY SbCl5_ts_opt.scfp WAS UPDATED ****
Total SCF time: 0 days 0 hours 0 min 12 sec 

Maximum memory used throughout the entire SCF-calculation: 104.8 MB

-------------------------   --------------------
FINAL SINGLE POINT ENERGY     -2540.507777750528
-------------------------   --------------------

------------------------------------------------------------------------------
                         ORCA SCF GRADIENT CALCULATION
------------------------------------------------------------------------------

Gradient of the Kohn-Sham DFT energy:
Kohn-Sham wavefunction type      ... RKS
Hartree-Fock exchange scaling    ...    0.000
Number of operators              ...    1
Number of atoms                  ...    6
Basis set dimensions             ...  235
Integral neglect threshold       ... 2.5e-11
Integral primitive cutoff        ... 2.5e-12
SHARK Integral package           ... ON

Nuc. rep. gradient       (SHARK) ... done (  0.0 sec)
HCore & Overlap gradient (SHARK) ... done (  0.1 sec)
ECP gradient             (SHARK) ... done (  1.4 sec)
RI-J gradient            (SHARK) ... done (  2.2 sec)
Exchange-correlation gradient    ... done

------------------
CARTESIAN GRADIENT
------------------

   1   Sb  :   -0.000000001   -0.001294587   -0.000000004
   2   Cl  :    0.000000002   -0.001396816   -0.000000001
   3   Cl  :   -0.003141369    0.000672855    0.000000004
   4   Cl  :    0.003141368    0.000672852   -0.000000003
   5   Cl  :    0.000000003    0.000672848   -0.003141325
   6   Cl  :   -0.000000002    0.000672849    0.003141329

Difference to translation invariance:
           :   -0.0000000001   -0.0000000000   -0.0000000000

Difference to rotation invariance:
           :   -0.0000000031   -0.0000000074    0.0000000038

Norm of the cartesian gradient     ...    0.0067015090
RMS gradient                       ...    0.0015795608
MAX gradient                       ...    0.0031413689

-------
TIMINGS
-------

Total SCF gradient time            ...        6.668 sec

One electron gradient       ....       1.549 sec  ( 23.2%)
RI-J Coulomb gradient       ....       2.200 sec  ( 33.0%)
XC gradient                 ....       2.803 sec  ( 42.0%)

Maximum memory used throughout the entire SCFGRAD-calculation: 104.2 MB
------------------------------------------------------------------------------
                         ORCA GEOMETRY RELAXATION STEP
------------------------------------------------------------------------------

Reading the OPT-File                    .... done
Getting information on internals        .... done
Copying old internal coords+grads       .... done
Making the new internal coordinates     .... (new redundants).... done
Validating the new internal coordinates .... (new redundants).... done
Calculating the B-matrix                .... done
Calculating the G,G- and P matrices     .... done
Transforming gradient to internals      .... done
Projecting the internal gradient        .... done
Number of atoms                         ....   6
Number of internal coordinates          ....  15
Current Energy                          .... -2540.507777751 Eh
Current gradient norm                   ....     0.006701509 Eh/bohr
Maximum allowed component of the step   ....  0.300
Current trust radius                    ....  0.300
Updating the Hessian (Bofill)          .... Diagonalizing the Hessian               .... done
Dimension of the hessian                ....  15
Lowest eigenvalues of the Hessian:
 -0.051696132  0.083140911  0.083141250  0.096199619  0.130209165
Hessian has   1 negative eigenvalues
Taking P-RFO step
Searching for lambda that maximizes along the lowest mode
TS mode is mode number   0 with eigenvalue  -0.05169613 and components:
   1.   -0.00000003
   2.   -0.02162613
   3.   -0.02162480
   4.    0.02162516
   5.    0.02162583
   6.    0.28840506
   7.   -0.57680941
   8.   -0.28840548
   9.    0.00000257
  10.   -0.00000065
  11.   -0.28840512
  12.    0.00000097
  13.   -0.00000226
  14.    0.57681060
  15.    0.28840436

Lambda that maximizes along the TS mode:       0.00000000
Searching for lambda that minimizes along all other modes
In cycle   1: lambdaN =  -0.00026930   step =   0.00026930
In cycle   2: lambdaN =  -0.00026930   step =   0.00000000
Lambda that minimizes along all other modes:  -0.00026930
The final length of the internal step   ....       0.0413
Converting the step to cartesian space:
 Initial RMS(Int)=    0.0106702533
Transforming coordinates:
 Iter   0:  RMS(Cart)=    0.0095657934 RMS(Int)=    0.0106705030
 Iter   1:  RMS(Cart)=    0.0000089841 RMS(Int)=    0.0000064469
 Iter   2:  RMS(Cart)=    0.0000000413 RMS(Int)=    0.0000000320
done
Storing new coordinates                 .... done

                                .--------------------.
          ----------------------|Geometry convergence|-------------------------
          Item                value                   Tolerance       Converged
          ---------------------------------------------------------------------
          Energy change      -0.0057026221            0.0000050000      NO
          RMS gradient        0.0016977293            0.0001000000      NO
          MAX gradient        0.0032126207            0.0003000000      NO
          RMS step            0.0106702533            0.0020000000      NO
          MAX step            0.0201423806            0.0040000000      NO
          ........................................................
          Max(Bonds)      0.0107      Max(Angles)    0.17
          Max(Dihed)        0.00      Max(Improp)    0.00
          ---------------------------------------------------------------------

The optimization has not yet converged - more geometry cycles are needed


    ---------------------------------------------------------------------------
                         Redundant Internal Coordinates
                            (Angstroem and degrees)

        Definition                    Value    dE/dq     Step     New-Value  comp.(TS mode)
    ----------------------------------------------------------------------------
     1. B(Cl  1,Sb  0)                2.3089 -0.001397  0.0040    2.3128   
     2. B(Cl  2,Sb  0)                2.3526 -0.003213  0.0107    2.3632   
     3. B(Cl  3,Sb  0)                2.3526 -0.003213  0.0107    2.3632   
     4. B(Cl  4,Sb  0)                2.3526 -0.003213  0.0107    2.3632   
     5. B(Cl  5,Sb  0)                2.3526 -0.003213  0.0107    2.3632   
     6. A(Cl  1,Sb  0,Cl  3)          102.10  0.000001    0.08    102.18          0.29
     7. A(Cl  2,Sb  0,Cl  3)          155.81 -0.000001   -0.17    155.64          0.58
     8. A(Cl  1,Sb  0,Cl  4)          102.10  0.000001    0.08    102.18          0.29
     9. A(Cl  2,Sb  0,Cl  4)           87.48 -0.000000   -0.05     87.43   
    10. A(Cl  3,Sb  0,Cl  4)           87.48 -0.000000   -0.05     87.43   
    11. A(Cl  1,Sb  0,Cl  5)          102.10  0.000001    0.08    102.18          0.29
    12. A(Cl  2,Sb  0,Cl  5)           87.48 -0.000000   -0.05     87.43   
    13. A(Cl  3,Sb  0,Cl  5)           87.48 -0.000000   -0.05     87.43   
    14. A(Cl  4,Sb  0,Cl  5)          155.81 -0.000001   -0.17    155.64          0.58
    15. A(Cl  1,Sb  0,Cl  2)          102.10  0.000001    0.08    102.18          0.29
[...]
  76   0.0000       0.288664         7.8549 
  77   0.0000       0.291725         7.9382 
  78   0.0000       0.298625         8.1260 
  79   0.0000       0.300574         8.1790 
  80   0.0000       0.300574         8.1790 
  81   0.0000       0.305256         8.3064 
  82   0.0000       0.320399         8.7185 
  83   0.0000       0.320680         8.7261 
  84   0.0000       0.320680         8.7261 
  85   0.0000       0.349051         9.4982 
  86   0.0000       0.349077         9.4989 
  87   0.0000       0.374328        10.1860 
  88   0.0000       0.375368        10.2143 
  89   0.0000       0.375368        10.2143 
  90   0.0000       0.378673        10.3042 
  91   0.0000       0.418763        11.3951 
  92   0.0000       0.429584        11.6896 
  93   0.0000       0.450287        12.2529 
  94   0.0000       0.450287        12.2529 
  95   0.0000       0.462345        12.5810 
  96   0.0000       0.507982        13.8229 
  97   0.0000       0.513840        13.9823 
  98   0.0000       0.513840        13.9823 
  99   0.0000       0.546114        14.8605 
 100   0.0000       0.549030        14.9399 
 101   0.0000       0.549030        14.9399 
 102   0.0000       0.564901        15.3717 
 103   0.0000       0.577522        15.7152 
 104   0.0000       0.624019        16.9804 
 105   0.0000       0.651870        17.7383 
 106   0.0000       0.651870        17.7383 
 107   0.0000       0.751888        20.4599 
 108   0.0000       0.774937        21.0871 
 109   0.0000       0.775321        21.0976 
 110   0.0000       0.775321        21.0976 
 111   0.0000       0.821629        22.3577 
 112   0.0000       0.823526        22.4093 
 113   0.0000       0.823526        22.4093 
 114   0.0000       0.864453        23.5230 
 115   0.0000       0.870776        23.6950 
 116   0.0000       0.870776        23.6950 
 117   0.0000       1.054006        28.6810 
 118   0.0000       1.076386        29.2900 
 119   0.0000       1.088165        29.6105 
 120   0.0000       1.138266        30.9738 
 121   0.0000       1.138266        30.9738 
 122   0.0000       1.168913        31.8077 
 123   0.0000       1.190234        32.3879 
 124   0.0000       1.190234        32.3879 
 125   0.0000       1.190459        32.3940 
 126   0.0000       1.201717        32.7004 
 127   0.0000       1.597808        43.4786 
 128   0.0000       1.611910        43.8623 
 129   0.0000       1.611910        43.8623 
 130   0.0000       1.618171        44.0327 
 131   0.0000       1.641033        44.6548 
 132   0.0000       1.641033        44.6548 
 133   0.0000       1.642726        44.7009 
 134   0.0000       1.655635        45.0521 
 135   0.0000       1.657680        45.1078 
 136   0.0000       1.682848        45.7926 
 137   0.0000       1.701786        46.3079 
 138   0.0000       1.701786        46.3079 
 139   0.0000       1.713806        46.6350 
 140   0.0000       1.729813        47.0706 
 141   0.0000       1.760943        47.9177 
 142   0.0000       1.764090        48.0033 
 143   0.0000       1.769814        48.1591 
 144   0.0000       1.769814        48.1591 
 145   0.0000       1.788828        48.6765 
 146   0.0000       1.790004        48.7085 
 147   0.0000       1.791055        48.7371 
 148   0.0000       1.800432        48.9923 
 149   0.0000       1.800432        48.9923 
 150   0.0000       1.833226        49.8846 
 151   0.0000       1.833226        49.8846 
 152   0.0000       1.927416        52.4476 
 153   0.0000       1.938204        52.7412 
 154   0.0000       1.938204        52.7412 
 155   0.0000       1.939795        52.7845 
 156   0.0000       1.947645        52.9981 
 157   0.0000       1.950184        53.0672 
 158   0.0000       1.950702        53.0813 
 159   0.0000       1.950968        53.0885 
 160   0.0000       1.950968        53.0885 
 161   0.0000       1.958575        53.2955 
 162   0.0000       1.964417        53.4545 
 163   0.0000       1.964417        53.4545 
 164   0.0000       1.966159        53.5019 
 165   0.0000       1.972831        53.6835 
 166   0.0000       1.972831        53.6835 
 167   0.0000       1.976618        53.7865 
 168   0.0000       1.979323        53.8601 
 169   0.0000       1.979323        53.8601 
 170   0.0000       1.979777        53.8725 
 171   0.0000       1.980314        53.8871 
 172   0.0000       1.981597        53.9220 
 173   0.0000       1.982508        53.9468 
 174   0.0000       1.982795        53.9546 
 175   0.0000       1.982795        53.9546 
 176   0.0000       1.990098        54.1533 
 177   0.0000       1.995550        54.3017 
 178   0.0000       1.995550        54.3017 
 179   0.0000       2.087199        56.7956 
 180   0.0000       2.087199        56.7956 
 181   0.0000       2.091828        56.9215 
 182   0.0000       2.115284        57.5598 
 183   0.0000       2.146330        58.4046 
 184   0.0000       2.151133        58.5353 
 185   0.0000       2.151133        58.5353 
 186   0.0000       2.163761        58.8789 
 187   0.0000       2.200579        59.8808 
 188   0.0000       2.200579        59.8808 
 189   0.0000       2.205709        60.0204 
 190   0.0000       2.206068        60.0302 
 191   0.0000       2.206068        60.0302 
 192   0.0000       2.209518        60.1240 
 193   0.0000       2.223681        60.5094 
 194   0.0000       2.224193        60.5234 
 195   0.0000       2.224193        60.5234 
 196   0.0000       2.324532        63.2537 
 197   0.0000       2.407952        65.5237 
 198   0.0000       2.407952        65.5237 
 199   0.0000       2.408230        65.5313 
 200   0.0000       2.528846        68.8134 
 201   0.0000       2.549399        69.3727 
 202   0.0000       2.637846        71.7794 
 203   0.0000       2.672664        72.7269 
 204   0.0000       2.672664        72.7269 
 205   0.0000       2.744949        74.6939 
 206   0.0000       2.891989        78.6950 
 207   0.0000       3.079353        83.7935 
 208   0.0000       3.079353        83.7935 
 209   0.0000       3.777502       102.7910 
 210   0.0000      10.473777       285.0060 
 211   0.0000      10.473777       285.0060 
 212   0.0000      10.498040       285.6662 
 213   0.0000      10.498040       285.6662 
 214   0.0000      10.500219       285.7255 
 215   0.0000      10.510890       286.0158 
 216   0.0000      10.531328       286.5720 
 217   0.0000      10.531681       286.5816 
 218   0.0000      10.540455       286.8204 
 219   0.0000      10.540455       286.8204 
 220   0.0000      10.670674       290.3638 
 221   0.0000      10.702741       291.2364 
 222   0.0000      10.755882       292.6824 
 223   0.0000      10.755882       292.6824 
 224   0.0000      10.785390       293.4854 
 225   0.0000      24.615861       669.8316 
 226   0.0000      24.648918       670.7311 
 227   0.0000      24.710411       672.4045 
 228   0.0000      24.710411       672.4045 
 229   0.0000      24.883264       677.1080 
 230   0.0000      38.988943      1060.9431 
 231   0.0000      39.004901      1061.3773 
 232   0.0000      39.004901      1061.3773 
 233   0.0000      39.905545      1085.8851 
 234   0.0000     112.686978      3066.3686 

                    ********************************
                    * MULLIKEN POPULATION ANALYSIS *
                    ********************************

-----------------------
MULLIKEN ATOMIC CHARGES
-----------------------
   0 Sb:    0.995473
   1 Cl:   -0.190753
   2 Cl:   -0.201180
   3 Cl:   -0.201180
   4 Cl:   -0.201180
   5 Cl:   -0.201180
Sum of atomic charges:    0.0000000

--------------------------------
MULLIKEN REDUCED ORBITAL CHARGES
--------------------------------
  0 Sbs       :     3.366627  s :     3.366627
      pz      :     2.649504  p :     7.920460
      px      :     2.649504
      py      :     2.621452
      dz2     :     2.124272  d :    10.568016
      dxz     :     2.123073
      dyz     :     2.114247
      dx2y2   :     2.092178
      dxy     :     2.114247
      f0      :     0.033707  f :     0.149424
      f+1     :     0.026606
      f-1     :     0.022083
      f+2     :     0.018242
      f-2     :     0.003464
      f+3     :     0.025342
      f-3     :     0.019980
  1 Cls       :     5.960224  s :     5.960224
      pz      :     3.898503  p :    11.194281
      px      :     3.898503
      py      :     3.397275
      dz2     :     0.005564  d :     0.033867
      dxz     :     0.000080
      dyz     :     0.006323
      dx2y2   :     0.015576
      dxy     :     0.006323
      f0      :     0.000194  f :     0.002382
      f+1     :     0.000035
      f-1     :     0.000508
      f+2     :     0.000326
      f-2     :     0.000007
      f+3     :     0.000485
      f-3     :     0.000828
  2 Cls       :     5.960298  s :     5.960298
      pz      :     3.925885  p :    11.207065
      px      :     3.410508
      py      :     3.870671
      dz2     :     0.005934  d :     0.031708
      dxz     :     0.006023
      dyz     :     0.000508
      dx2y2   :     0.012352
      dxy     :     0.006891
      f0      :     0.000174  f :     0.002109
      f+1     :     0.000519
      f-1     :     0.000054
      f+2     :     0.000228
      f-2     :     0.000054
      f+3     :     0.000586
      f-3     :     0.000493
  3 Cls       :     5.960298  s :     5.960298
      pz      :     3.925885  p :    11.207065
      px      :     3.410508
      py      :     3.870671
      dz2     :     0.005934  d :     0.031708
      dxz     :     0.006023
      dyz     :     0.000508
      dx2y2   :     0.012352
      dxy     :     0.006891
      f0      :     0.000174  f :     0.002109
      f+1     :     0.000519
      f-1     :     0.000054
      f+2     :     0.000228
      f-2     :     0.000054
      f+3     :     0.000586
      f-3     :     0.000493
  4 Cls       :     5.960298  s :     5.960298
      pz      :     3.410508  p :    11.207065
      px      :     3.925885
      py      :     3.870671
      dz2     :     0.016884  d :     0.031708
      dxz     :     0.006023
      dyz     :     0.006891
      dx2y2   :     0.001402
      dxy     :     0.000508
      f0      :     0.001000  f :     0.002109
      f+1     :     0.000390
      f-1     :     0.000539
      f+2     :     0.000105
      f-2     :     0.000054
      f+3     :     0.000012
      f-3     :     0.000008
  5 Cls       :     5.960298  s :     5.960298
      pz      :     3.410508  p :    11.207065
      px      :     3.925885
      py      :     3.870671
      dz2     :     0.016884  d :     0.031708
      dxz     :     0.006023
      dyz     :     0.006891
      dx2y2   :     0.001402
      dxy     :     0.000508
      f0      :     0.001000  f :     0.002109
      f+1     :     0.000390
      f-1     :     0.000539
      f+2     :     0.000105
      f-2     :     0.000054
      f+3     :     0.000012
      f-3     :     0.000008


                     *******************************
                     * LOEWDIN POPULATION ANALYSIS *
                     *******************************

----------------------
LOEWDIN ATOMIC CHARGES
----------------------
   0 Sb:   -0.312569
   1 Cl:    0.104241
   2 Cl:    0.052082
   3 Cl:    0.052082
   4 Cl:    0.052082
   5 Cl:    0.052082

-------------------------------
LOEWDIN REDUCED ORBITAL CHARGES
-------------------------------
  0 Sbs       :     3.127082  s :     3.127082
      pz      :     2.828413  p :     8.430976
      px      :     2.828413
      py      :     2.774150
      dz2     :     2.433406  d :    11.381061
      dxz     :     2.196865
      dyz     :     2.207793
      dx2y2   :     2.335204
      dxy     :     2.207793
      f0      :     0.088936  f :     0.373449
      f+1     :     0.063946
      f-1     :     0.059485
      f+2     :     0.036873
      f-2     :     0.006157
      f+3     :     0.061863
      f-3     :     0.056190
  1 Cls       :     5.717940  s :     5.717940
      pz      :     3.851308  p :    11.123663
      px      :     3.851308
      py      :     3.421046
      dz2     :     0.009575  d :     0.050175
      dxz     :     0.000060
      dyz     :     0.006470
      dx2y2   :     0.027599
      dxy     :     0.006470
      f0      :     0.000209  f :     0.003981
      f+1     :     0.000040
      f-1     :     0.001073
      f+2     :     0.000358
      f-2     :     0.000005
      f+3     :     0.000528
      f-3     :     0.001769
  2 Cls       :     5.740863  s :     5.740863
      pz      :     3.889347  p :    11.155193
      px      :     3.434545
      py      :     3.831301
      dz2     :     0.009686  d :     0.048317
      dxz     :     0.007125
      dyz     :     0.000505
      dx2y2   :     0.022537
      dxy     :     0.008464
      f0      :     0.000194  f :     0.003544
      f+1     :     0.000994
      f-1     :     0.000072
      f+2     :     0.000277
      f-2     :     0.000061
      f+3     :     0.001185
      f-3     :     0.000761
  3 Cls       :     5.740863  s :     5.740863
      pz      :     3.889347  p :    11.155193
      px      :     3.434545
      py      :     3.831301
      dz2     :     0.009686  d :     0.048317
      dxz     :     0.007125
      dyz     :     0.000505
      dx2y2   :     0.022537
      dxy     :     0.008464
      f0      :     0.000194  f :     0.003544
      f+1     :     0.000994
      f-1     :     0.000072
      f+2     :     0.000277
      f-2     :     0.000061
      f+3     :     0.001185
      f-3     :     0.000761
  4 Cls       :     5.740863  s :     5.740863
      pz      :     3.434545  p :    11.155193
      px      :     3.889347
      py      :     3.831301
      dz2     :     0.030592  d :     0.048317
      dxz     :     0.007125
      dyz     :     0.008464
      dx2y2   :     0.001631
      dxy     :     0.000505
      f0      :     0.002056  f :     0.003544
      f+1     :     0.000454
      f-1     :     0.000824
      f+2     :     0.000123
      f-2     :     0.000061
      f+3     :     0.000017
      f-3     :     0.000009
  5 Cls       :     5.740863  s :     5.740863
      pz      :     3.434545  p :    11.155193
      px      :     3.889347
      py      :     3.831301
      dz2     :     0.030592  d :     0.048317
      dxz     :     0.007125
      dyz     :     0.008464
      dx2y2   :     0.001631
      dxy     :     0.000505
      f0      :     0.002056  f :     0.003544
      f+1     :     0.000454
      f-1     :     0.000824
      f+2     :     0.000123
      f-2     :     0.000061
      f+3     :     0.000017
      f-3     :     0.000009


                      *****************************
                      * MAYER POPULATION ANALYSIS *
                      *****************************

  NA   - Mulliken gross atomic population
  ZA   - Total nuclear charge
  QA   - Mulliken gross atomic charge
  VA   - Mayer's total valence
  BVA  - Mayer's bonded valence
  FA   - Mayer's free valence

  ATOM       NA         ZA         QA         VA         BVA        FA
  0 Sb    22.0045    23.0000     0.9955     4.9528     4.9528     0.0000
  1 Cl    17.1908    17.0000    -0.1908     1.2317     1.2317     0.0000
  2 Cl    17.2012    17.0000    -0.2012     1.2058     1.2058     0.0000
  3 Cl    17.2012    17.0000    -0.2012     1.2058     1.2058    -0.0000
  4 Cl    17.2012    17.0000    -0.2012     1.2058     1.2058     0.0000
  5 Cl    17.2012    17.0000    -0.2012     1.2058     1.2058    -0.0000

  Mayer bond orders larger than 0.100000
B(  0-Sb,  1-Cl) :   1.0380 B(  0-Sb,  2-Cl) :   0.9787 B(  0-Sb,  3-Cl) :   0.9787 
B(  0-Sb,  4-Cl) :   0.9787 B(  0-Sb,  5-Cl) :   0.9787 

-------
TIMINGS
-------

Total SCF time: 0 days 0 hours 0 min 5 sec 

Total time                  ....       5.570 sec
Sum of individual times     ....       5.250 sec  ( 94.3%)

Fock matrix formation       ....       4.500 sec  ( 80.8%)
  Split-RI-J                ....       1.534 sec  ( 34.1% of F)
  XC integration            ....       2.955 sec  ( 65.7% of F)
    Basis function eval.    ....       1.032 sec  ( 34.9% of XC)
    Density eval.           ....       0.938 sec  ( 31.7% of XC)
    XC-Functional eval.     ....       0.148 sec  (  5.0% of XC)
    XC-Potential eval.      ....       0.640 sec  ( 21.7% of XC)
Diagonalization             ....       0.016 sec  (  0.3%)
Density matrix formation    ....       0.008 sec  (  0.1%)
Population analysis         ....       0.028 sec  (  0.5%)
Initial guess               ....       0.010 sec  (  0.2%)
Orbital Transformation      ....       0.000 sec  (  0.0%)
Orbital Orthonormalization  ....       0.006 sec  (  0.1%)
DIIS solution               ....       0.006 sec  (  0.1%)
SOSCF solution              ....       0.052 sec  (  0.9%)
Grid generation             ....       0.630 sec  ( 11.3%)

Maximum memory used throughout the entire SCF-calculation: 104.4 MB

-------------------------   --------------------
FINAL SINGLE POINT ENERGY     -2540.507927232073
-------------------------   --------------------

                                *** OPTIMIZATION RUN DONE ***

                            ***************************************
                            *     ORCA property calculations      *
                            ***************************************

                                    ---------------------
                                    Active property flags
                                    ---------------------
   (+) Dipole Moment


------------------------------------------------------------------------------
                       ORCA ELECTRIC PROPERTIES CALCULATION
------------------------------------------------------------------------------

Dipole Moment Calculation                       ... on
Quadrupole Moment Calculation                   ... off
Polarizability Calculation                      ... off
GBWName                                         ... SbCl5_ts_opt.gbw
Electron density                                ... SbCl5_ts_opt.scfp
The origin for moment calculation is the CENTER OF MASS  = ( 0.000000, -0.064723  0.000000)

-------------
DIPOLE MOMENT
-------------
                                X             Y             Z
Electronic contribution:      0.00000      -2.50968       0.00000
Nuclear contribution   :     -0.00000       2.57371      -0.00000
                        -----------------------------------------
Total Dipole Moment    :     -0.00000       0.06403       0.00000
                        -----------------------------------------
Magnitude (a.u.)       :      0.06403
Magnitude (Debye)      :      0.16275



--------------------
Rotational spectrum 
--------------------
 
Rotational constants in cm-1:     0.027949     0.027949     0.022243 
Rotational constants in MHz :   837.897368   837.897340   666.829761 

 Dipole components along the rotational axes: 
x,y,z [a.u.] :     0.000000     0.000000    -0.064029 
x,y,z [Debye]:     0.000000     0.000000    -0.162749 

 

Timings for individual modules:

Sum of individual times         ...       84.740 sec (=   1.412 min)
GTO integral calculation        ...        3.433 sec (=   0.057 min)   4.1 %
SCF iterations                  ...       54.551 sec (=   0.909 min)  64.4 %
SCF Gradient evaluation         ...       26.526 sec (=   0.442 min)  31.3 %
Geometry relaxation             ...        0.230 sec (=   0.004 min)   0.3 %
                             ****ORCA TERMINATED NORMALLY****
TOTAL RUN TIME: 0 days 0 hours 1 minutes 25 seconds 274 msec
