
                                 *****************
                                 * O   R   C   A *
                                 *****************

                                            #,                                       
                                            ###                                      
                                            ####                                     
                                            #####                                    
                                            ######                                   
                                           ########,                                 
                                     ,,################,,,,,                         
                               ,,#################################,,                 
                          ,,##########################################,,             
                       ,#########################################, ''#####,          
                    ,#############################################,,   '####,        
                  ,##################################################,,,,####,       
                ,###########''''           ''''###############################       
              ,#####''   ,,,,##########,,,,          '''####'''          '####       
            ,##' ,,,,###########################,,,                        '##       
           ' ,,###''''                  '''############,,,                           
         ,,##''                                '''############,,,,        ,,,,,,###''
      ,#''                                            '''#######################'''  
     '                                                          ''''####''''         
             ,#######,   #######,   ,#######,      ##                                
            ,#'     '#,  ##    ##  ,#'     '#,    #''#        ######   ,####,        
            ##       ##  ##   ,#'  ##            #'  '#       #        #'  '#        
            ##       ##  #######   ##           ,######,      #####,   #    #        
            '#,     ,#'  ##    ##  '#,     ,#' ,#      #,         ##   #,  ,#        
             '#######'   ##     ##  '#######'  #'      '#     #####' # '####'        



                  #######################################################
                  #                        -***-                        #
                  #          Department of theory and spectroscopy      #
                  #    Directorship and core code : Frank Neese         #
                  #        Max Planck Institute fuer Kohlenforschung    #
                  #                Kaiser Wilhelm Platz 1               #
                  #                 D-45470 Muelheim/Ruhr               #
                  #                      Germany                        #
                  #                                                     #
                  #                  All rights reserved                #
                  #                        -***-                        #
                  #######################################################



                         Program Version 5.0.4 -  RELEASE  -

 With contributions from (in alphabetic order):
   Daniel Aravena         : Magnetic Suceptibility
   Michael Atanasov       : Ab Initio Ligand Field Theory (pilot matlab implementation)
   Alexander A. Auer      : GIAO ZORA, VPT2 properties, NMR spectrum
   Ute Becker             : Parallelization
   Giovanni Bistoni       : ED, misc. LED, open-shell LED, HFLD
   Martin Brehm           : Molecular dynamics
   Dmytro Bykov           : SCF Hessian
   Vijay G. Chilkuri      : MRCI spin determinant printing, contributions to CSF-ICE
   Dipayan Datta          : RHF DLPNO-CCSD density
   Achintya Kumar Dutta   : EOM-CC, STEOM-CC
   Dmitry Ganyushin       : Spin-Orbit,Spin-Spin,Magnetic field MRCI
   Miquel Garcia          : C-PCM and meta-GGA Hessian, CC/C-PCM, Gaussian charge scheme
   Yang Guo               : DLPNO-NEVPT2, F12-NEVPT2, CIM, IAO-localization
   Andreas Hansen         : Spin unrestricted coupled pair/coupled cluster methods
   Benjamin Helmich-Paris : MC-RPA, TRAH-SCF, COSX integrals
   Lee Huntington         : MR-EOM, pCC
   Robert Izsak           : Overlap fitted RIJCOSX, COSX-SCS-MP3, EOM
   Marcus Kettner         : VPT2
   Christian Kollmar      : KDIIS, OOCD, Brueckner-CCSD(T), CCSD density, CASPT2, CASPT2-K
   Simone Kossmann        : Meta GGA functionals, TD-DFT gradient, OOMP2, MP2 Hessian
   Martin Krupicka        : Initial AUTO-CI
   Lucas Lang             : DCDCAS
   Marvin Lechner         : AUTO-CI (C++ implementation), FIC-MRCC
   Dagmar Lenk            : GEPOL surface, SMD
   Dimitrios Liakos       : Extrapolation schemes; Compound Job, initial MDCI parallelization
   Dimitrios Manganas     : Further ROCIS development; embedding schemes
   Dimitrios Pantazis     : SARC Basis sets
   Anastasios Papadopoulos: AUTO-CI, single reference methods and gradients
   Taras Petrenko         : DFT Hessian,TD-DFT gradient, ASA, ECA, R-Raman, ABS, FL, XAS/XES, NRVS
   Peter Pinski           : DLPNO-MP2, DLPNO-MP2 Gradient
   Christoph Reimann      : Effective Core Potentials
   Marius Retegan         : Local ZFS, SOC
   Christoph Riplinger    : Optimizer, TS searches, QM/MM, DLPNO-CCSD(T), (RO)-DLPNO pert. Triples
   Tobias Risthaus        : Range-separated hybrids, TD-DFT gradient, RPA, STAB
   Michael Roemelt        : Original ROCIS implementation
   Masaaki Saitow         : Open-shell DLPNO-CCSD energy and density
   Barbara Sandhoefer     : DKH picture change effects
   Avijit Sen             : IP-ROCIS
   Kantharuban Sivalingam : CASSCF convergence, NEVPT2, FIC-MRCI
   Bernardo de Souza      : ESD, SOC TD-DFT
   Georgi Stoychev        : AutoAux, RI-MP2 NMR, DLPNO-MP2 response
   Willem Van den Heuvel  : Paramagnetic NMR
   Boris Wezisla          : Elementary symmetry handling
   Frank Wennmohs         : Technical directorship


 We gratefully acknowledge several colleagues who have allowed us to
 interface, adapt or use parts of their codes:
   Stefan Grimme, W. Hujo, H. Kruse, P. Pracht,  : VdW corrections, initial TS optimization,
                  C. Bannwarth, S. Ehlert          DFT functionals, gCP, sTDA/sTD-DF
   Ed Valeev, F. Pavosevic, A. Kumar             : LibInt (2-el integral package), F12 methods
   Garnet Chan, S. Sharma, J. Yang, R. Olivares  : DMRG
   Ulf Ekstrom                                   : XCFun DFT Library
   Mihaly Kallay                                 : mrcc  (arbitrary order and MRCC methods)
   Jiri Pittner, Ondrej Demel                    : Mk-CCSD
   Frank Weinhold                                : gennbo (NPA and NBO analysis)
   Christopher J. Cramer and Donald G. Truhlar   : smd solvation model
   Lars Goerigk                                  : TD-DFT with DH, B97 family of functionals
   V. Asgeirsson, H. Jonsson                     : NEB implementation
   FAccTs GmbH                                   : IRC, NEB, NEB-TS, DLPNO-Multilevel, CI-OPT
                                                   MM, QMMM, 2- and 3-layer-ONIOM, Crystal-QMMM,
                                                   LR-CPCM, SF, NACMEs, symmetry and pop. for TD-DFT,
                                                   nearIR, NL-DFT gradient (VV10), updates on ESD,
                                                   ML-optimized integration grids
   S Lehtola, MJT Oliveira, MAL Marques          : LibXC Library
   Liviu Ungur et al                             : ANISO software


 Your calculation uses the libint2 library for the computation of 2-el integrals
 For citations please refer to: http://libint.valeyev.net

 Your ORCA version has been built with support for libXC version: 5.1.0
 For citations please refer to: https://tddft.org/programs/libxc/

 This ORCA versions uses:
   CBLAS   interface :  Fast vector & matrix operations
   LAPACKE interface :  Fast linear algebra routines
   Shared memory     :  Shared parallel matrices


================================================================================

----- Orbital basis set information -----
Your calculation utilizes the basis: def2-TZVP
   F. Weigend and R. Ahlrichs, Phys. Chem. Chem. Phys. 7, 3297 (2005).

----- AuxJ basis set information -----
Your calculation utilizes the auxiliary basis: def2/J
   F. Weigend, Phys. Chem. Chem. Phys. 8, 1057 (2006).

================================================================================
                                        WARNINGS
                       Please study these warnings very carefully!
================================================================================


INFO   : the flag for use of the SHARK integral package has been found!

================================================================================
                                       INPUT FILE
================================================================================
NAME = PF5_min_sp.inp
|  1> ! PBE def2-TZVP
|  2> 
|  3> * xyz 0 1
|  4>   P     -0.000000    0.000246   -0.000000
|  5>   F      0.000000    1.566157    0.000000
|  6>   F      1.355301   -0.784033    0.000000
|  7>   F     -1.355301   -0.784033   -0.000000
|  8>   F     -0.000000    0.000831    1.601660
|  9>   F     -0.000000    0.000831   -1.601660
| 10> *
| 11> 
| 12>                          ****END OF INPUT****
================================================================================

                       ****************************
                       * Single Point Calculation *
                       ****************************

---------------------------------
CARTESIAN COORDINATES (ANGSTROEM)
---------------------------------
  P     -0.000000    0.000246   -0.000000
  F      0.000000    1.566157    0.000000
  F      1.355301   -0.784033    0.000000
  F     -1.355301   -0.784033   -0.000000
  F     -0.000000    0.000831    1.601660
  F     -0.000000    0.000831   -1.601660

----------------------------
CARTESIAN COORDINATES (A.U.)
----------------------------
  NO LB      ZA    FRAG     MASS         X           Y           Z
   0 P    15.0000    0    30.974   -0.000000    0.000465   -0.000000
   1 F     9.0000    0    18.998    0.000000    2.959608    0.000000
   2 F     9.0000    0    18.998    2.561148   -1.481608    0.000000
   3 F     9.0000    0    18.998   -2.561148   -1.481608   -0.000000
   4 F     9.0000    0    18.998   -0.000000    0.001570    3.026699
   5 F     9.0000    0    18.998   -0.000000    0.001570   -3.026699

--------------------------------
INTERNAL COORDINATES (ANGSTROEM)
--------------------------------
 P      0   0   0     0.000000000000     0.00000000     0.00000000
 F      1   0   0     1.565911000000     0.00000000     0.00000000
 F      1   2   0     1.565865367917   120.05689960     0.00000000
 F      1   2   3     1.565865367917   120.05689960   180.00000000
 F      1   2   3     1.601660106834    89.97907294    90.00000000
 F      1   2   3     1.601660106834    89.97907294   270.00000000

---------------------------
INTERNAL COORDINATES (A.U.)
---------------------------
 P      0   0   0     0.000000000000     0.00000000     0.00000000
 F      1   0   0     2.959142940095     0.00000000     0.00000000
 F      1   2   0     2.959056707955   120.05689960     0.00000000
 F      1   2   3     2.959056707955   120.05689960   180.00000000
 F      1   2   3     3.026698961544    89.97907294    90.00000000
 F      1   2   3     3.026698961544    89.97907294   270.00000000

---------------------
BASIS SET INFORMATION
---------------------
There are 2 groups of distinct atoms

 Group   1 Type P   : 14s9p3d1f contracted to 5s5p2d1f pattern {73211/51111/21/1}
 Group   2 Type F   : 11s6p2d1f contracted to 5s3p2d1f pattern {62111/411/11/1}

Atom   0P    basis set group =>   1
Atom   1F    basis set group =>   2
Atom   2F    basis set group =>   2
Atom   3F    basis set group =>   2
Atom   4F    basis set group =>   2
Atom   5F    basis set group =>   2
---------------------------------
AUXILIARY/J BASIS SET INFORMATION
---------------------------------
There are 2 groups of distinct atoms

 Group   1 Type P   : 14s5p5d2f1g contracted to 8s4p3d1f1g pattern {71111111/2111/311/2/1}
 Group   2 Type F   : 12s5p4d2f1g contracted to 6s4p3d1f1g pattern {711111/2111/211/2/1}

Atom   0P    basis set group =>   1
Atom   1F    basis set group =>   2
Atom   2F    basis set group =>   2
Atom   3F    basis set group =>   2
Atom   4F    basis set group =>   2
Atom   5F    basis set group =>   2
------------------------------------------------------------------------------
                           ORCA GTO INTEGRAL CALCULATION
                           -- RI-GTO INTEGRALS CHOSEN --
------------------------------------------------------------------------------
------------------------------------------------------------------------------
                   ___                                                        
                  /   \      - P O W E R E D   B Y -                         
                 /     \                                                     
                 |  |  |   _    _      __       _____    __    __             
                 |  |  |  | |  | |    /  \     |  _  \  |  |  /  |          
                  \  \/   | |  | |   /    \    | | | |  |  | /  /          
                 / \  \   | |__| |  /  /\  \   | |_| |  |  |/  /          
                |  |  |   |  __  | /  /__\  \  |    /   |      \           
                |  |  |   | |  | | |   __   |  |    \   |  |\   \          
                \     /   | |  | | |  |  |  |  | |\  \  |  | \   \       
                 \___/    |_|  |_| |__|  |__|  |_| \__\ |__|  \__/        
                                                                              
                      - O R C A' S   B I G   F R I E N D -                    
                                      &                                       
                       - I N T E G R A L  F E E D E R -                       
                                                                              
 v1 FN, 2020, v2 2021                                                         
------------------------------------------------------------------------------


Reading SHARK input file PF5_min_sp.SHARKINP.tmp ... ok
----------------------
SHARK INTEGRAL PACKAGE
----------------------

Number of atoms                             ...      6
Number of basis functions                   ...    192
Number of shells                            ...     68
Maximum angular momentum                    ...      3
Integral batch strategy                     ... SHARK/LIBINT Hybrid
RI-J (if used) integral strategy            ... SPLIT-RIJ (Revised 2003 algorithm where possible)
Printlevel                                  ...      1
Contraction scheme used                     ... SEGMENTED contraction
Coulomb Range Separation                    ... NOT USED
Exchange Range Separation                   ... NOT USED
Finite Nucleus Model                        ... NOT USED
Auxiliary Coulomb fitting basis             ... AVAILABLE
   # of basis functions in Aux-J            ...    296
   # of shells in Aux-J                     ...     92
   Maximum angular momentum in Aux-J        ...      4
Auxiliary J/K fitting basis                 ... NOT available
Auxiliary Correlation fitting basis         ... NOT available
Auxiliary 'external' fitting basis          ... NOT available
Integral threshold                          ...     1.000000e-10
Primitive cut-off                           ...     1.000000e-11
Primitive pair pre-selection threshold      ...     1.000000e-11

Calculating pre-screening integrals         ... done (  0.1 sec) Dimension = 68
Organizing shell pair data                  ... done (  0.0 sec)
Shell pair information
Total number of shell pairs                 ...      2346
Shell pairs after pre-screening             ...      2119
Total number of primitive shell pairs       ...      8274
Primitive shell pairs kept                  ...      5455
          la=0 lb=0:    376 shell pairs
          la=1 lb=0:    553 shell pairs
          la=1 lb=1:    209 shell pairs
          la=2 lb=0:    316 shell pairs
          la=2 lb=1:    232 shell pairs
          la=2 lb=2:     74 shell pairs
          la=3 lb=0:    150 shell pairs
          la=3 lb=1:    118 shell pairs
          la=3 lb=2:     70 shell pairs
          la=3 lb=3:     21 shell pairs

Calculating one electron integrals          ... done (  0.0 sec)
Calculating RI/J V-Matrix + Cholesky decomp.... done (  0.0 sec)
Calculating Nuclear repulsion               ... done (  0.0 sec) ENN=    401.681640216789 Eh

SHARK setup successfully completed in   0.2 seconds

Maximum memory used throughout the entire GTOINT-calculation: 50.0 MB
-------------------------------------------------------------------------------
                                 ORCA SCF
-------------------------------------------------------------------------------

------------
SCF SETTINGS
------------
Hamiltonian:
 Density Functional     Method          .... DFT(GTOs)
 Exchange Functional    Exchange        .... PBE
   PBE kappa parameter   XKappa         ....  0.804000
   PBE mue parameter    XMuePBE         ....  0.219520
 Correlation Functional Correlation     .... PBE
   PBE beta parameter  CBetaPBE         ....  0.066725
 LDA part of GGA corr.  LDAOpt          .... PW91-LDA
 Gradients option       PostSCFGGA      .... off
   Density functional embedding theory  .... OFF
   NL short-range parameter             ....  6.400000
 RI-approximation to the Coulomb term is turned on
   Number of AuxJ basis functions       .... 296


General Settings:
 Integral files         IntName         .... PF5_min_sp
 Hartree-Fock type      HFTyp           .... RHF
 Total Charge           Charge          ....    0
 Multiplicity           Mult            ....    1
 Number of Electrons    NEL             ....   60
 Basis Dimension        Dim             ....  192
 Nuclear Repulsion      ENuc            ....    401.6816402168 Eh

Convergence Acceleration:
 DIIS                   CNVDIIS         .... on
   Start iteration      DIISMaxIt       ....    12
   Startup error        DIISStart       ....  0.200000
   # of expansion vecs  DIISMaxEq       ....     5
   Bias factor          DIISBfac        ....   1.050
   Max. coefficient     DIISMaxC        ....  10.000
 Trust-Rad. Augm. Hess. CNVTRAH         .... auto
   Auto Start mean grad. ratio tolernc. ....  1.125000
   Auto Start start iteration           ....    20
   Auto Start num. interpolation iter.  ....    10
   Max. Number of Micro iterations      ....    16
   Max. Number of Macro iterations      .... Maxiter - #DIIS iter
   Number of Davidson start vectors     ....     2
   Converg. threshold I  (grad. norm)   ....   5.000e-05
   Converg. threshold II (energy diff.) ....   1.000e-06
   Grad. Scal. Fac. for Micro threshold ....   0.100
   Minimum threshold for Micro iter.    ....   0.010
   NR start threshold (gradient norm)   ....   0.001
   Initial trust radius                 ....   0.400
   Minimum AH scaling param. (alpha)    ....   1.000
   Maximum AH scaling param. (alpha)    .... 1000.000
   Orbital update algorithm             .... Taylor
   White noise on init. David. guess    .... on
   Maximum white noise                  ....   0.010
   Quad. conv. algorithm                .... NR
 SOSCF                  CNVSOSCF        .... on
   Start iteration      SOSCFMaxIt      ....   150
   Startup grad/error   SOSCFStart      ....  0.003300
 Level Shifting         CNVShift        .... on
   Level shift para.    LevelShift      ....    0.2500
   Turn off err/grad.   ShiftErr        ....    0.0010
 Zerner damping         CNVZerner       .... off
 Static damping         CNVDamp         .... on
   Fraction old density DampFac         ....    0.7000
   Max. Damping (<1)    DampMax         ....    0.9800
   Min. Damping (>=0)   DampMin         ....    0.0000
   Turn off err/grad.   DampErr         ....    0.1000
 Fernandez-Rico         CNVRico         .... off

SCF Procedure:
 Maximum # iterations   MaxIter         ....   125
 SCF integral mode      SCFMode         .... Direct
   Integral package                     .... SHARK and LIBINT hybrid scheme
 Reset frequency        DirectResetFreq ....    20
 Integral Threshold     Thresh          ....  1.000e-10 Eh
 Primitive CutOff       TCut            ....  1.000e-11 Eh

Convergence Tolerance:
 Convergence Check Mode ConvCheckMode   .... Total+1el-Energy
 Convergence forced     ConvForced      .... 0
 Energy Change          TolE            ....  1.000e-06 Eh
 1-El. energy change                    ....  1.000e-03 Eh
 Orbital Gradient       TolG            ....  5.000e-05
 Orbital Rotation angle TolX            ....  5.000e-05
 DIIS Error             TolErr          ....  1.000e-06


Diagonalization of the overlap matrix:
Smallest eigenvalue                        ... 2.182e-03
Time for diagonalization                   ...    0.005 sec
Threshold for overlap eigenvalues          ... 1.000e-08
Number of eigenvalues below threshold      ... 0
Time for construction of square roots      ...    0.005 sec
Total time needed                          ...    0.010 sec

Time for model grid setup =    0.083 sec

------------------------------
INITIAL GUESS: MODEL POTENTIAL
------------------------------
Loading Hartree-Fock densities                     ... done
Calculating cut-offs                               ... done
Initializing the effective Hamiltonian             ... done
Setting up the integral package (SHARK)            ... done
Starting the Coulomb interaction                   ... done (   0.1 sec)
Reading the grid                                   ... done
Mapping shells                                     ... done
Starting the XC term evaluation                    ... done (   0.2 sec)
  promolecular density results
     # of electrons  =     60.000781191
     EX              =    -72.635009398
     EC              =     -2.176615337
     EX+EC           =    -74.811624735
Transforming the Hamiltonian                       ... done (   0.0 sec)
Diagonalizing the Hamiltonian                      ... done (   0.0 sec)
Back transforming the eigenvectors                 ... done (   0.0 sec)
Now organizing SCF variables                       ... done
                      ------------------
                      INITIAL GUESS DONE (   0.4 sec)
                      ------------------
-------------------
DFT GRID GENERATION
-------------------

General Integration Accuracy     IntAcc      ... 4.388
Radial Grid Type                 RadialGrid  ... OptM3 with GC (2021)
Angular Grid (max. ang.)         AngularGrid ... 4 (Lebedev-302)
Angular grid pruning method      GridPruning ... 4 (adaptive)
Weight generation scheme         WeightScheme... Becke
Basis function cutoff            BFCut       ... 1.0000e-10
Integration weight cutoff        WCut        ... 1.0000e-14
Angular grids for H and He will be reduced by one unit
Partially contracted basis set               ... off
Rotationally invariant grid construction     ... off

Total number of grid points                  ...    37945
Total number of batches                      ...      595
Average number of points per batch           ...       63
Average number of grid points per atom       ...     6324
Time for grid setup =    0.436 sec

--------------
SCF ITERATIONS
--------------
ITER       Energy         Delta-E        Max-DP      RMS-DP      [F,P]     Damp
               ***  Starting incremental Fock matrix formation  ***
  0   -840.2058137207   0.000000000000 0.16770791  0.00144496  0.1875025 0.7000
  1   -840.2820321214  -0.076218400655 0.08593710  0.00073080  0.0574594 0.7000
                               ***Turning on DIIS***
  2   -840.3024780491  -0.020445927775 0.05864343  0.00055820  0.0058598 0.0000
  3   -840.3504665504  -0.047988501241 0.04217690  0.00035976  0.0277661 0.0000
                      *** Initiating the SOSCF procedure ***
                           *** Shutting down DIIS ***
                      *** Re-Reading the Fockian *** 
                      *** Removing any level shift *** 
ITER      Energy       Delta-E        Grad      Rot      Max-DP    RMS-DP
  4   -840.35457551  -0.0041089557  0.002140  0.002140  0.009354  0.000083
               *** Restarting incremental Fock matrix formation ***
  5   -840.35467353  -0.0000980270  0.000792  0.001971  0.001517  0.000047
  6   -840.35464714   0.0000263961  0.001761  0.001364  0.001065  0.000028
  7   -840.35468443  -0.0000372914  0.000128  0.000146  0.000188  0.000006
  8   -840.35468431   0.0000001141  0.000149  0.000074  0.000101  0.000003
  9   -840.35468464  -0.0000003243  0.000038  0.000055  0.000273  0.000002
 10   -840.35468461   0.0000000263  0.000044  0.000031  0.000154  0.000001
                 **** Energy Check signals convergence ****
              ***Rediagonalizing the Fockian in SOSCF/NRSCF***

               *****************************************************
               *                     SUCCESS                       *
               *           SCF CONVERGED AFTER  11 CYCLES          *
               *****************************************************


----------------
TOTAL SCF ENERGY
----------------

Total Energy       :         -840.35468467 Eh          -22867.21352 eV

Components:
Nuclear Repulsion  :          401.68164022 Eh           10930.31312 eV
Electronic Energy  :        -1242.03632488 Eh          -33797.52663 eV
One Electron Energy:        -1967.41494966 Eh          -53536.08250 eV
Two Electron Energy:          725.37862477 Eh           19738.55587 eV

Virial components:
Potential Energy   :        -1678.50834562 Eh          -45674.53413 eV
Kinetic Energy     :          838.15366095 Eh           22807.32062 eV
Virial Ratio       :            2.00262604


DFT components:
N(Alpha)           :       29.999988348152 electrons
N(Beta)            :       29.999988348152 electrons
N(Total)           :       59.999976696303 electrons
E(X)               :      -72.977812525340 Eh       
E(C)               :       -2.170411995809 Eh       
E(XC)              :      -75.148224521149 Eh       
DFET-embed. en.    :        0.000000000000 Eh       

---------------
SCF CONVERGENCE
---------------

  Last Energy change         ...   -5.5857e-08  Tolerance :   1.0000e-06
  Last MAX-Density change    ...    8.5308e-07  Tolerance :   1.0000e-05
  Last RMS-Density change    ...    2.1057e-08  Tolerance :   1.0000e-06
  Last Orbital Gradient      ...    7.0780e-07  Tolerance :   5.0000e-05
  Last Orbital Rotation      ...    5.7660e-07  Tolerance :   5.0000e-05

             **** THE GBW FILE WAS UPDATED (PF5_min_sp.gbw) ****
             **** DENSITY PF5_min_sp.scfp WAS UPDATED ****
             **** ENERGY FILE WAS UPDATED (PF5_min_sp.en.tmp) ****
             **** THE GBW FILE WAS UPDATED (PF5_min_sp.gbw) ****
             **** DENSITY PF5_min_sp.scfp WAS UPDATED ****
----------------
ORBITAL ENERGIES
----------------

  NO   OCC          E(Eh)            E(eV) 
   0   2.0000     -76.558294     -2083.2571 
   1   2.0000     -24.324432      -661.9014 
   2   2.0000     -24.324413      -661.9009 
   3   2.0000     -24.324411      -661.9009 
   4   2.0000     -24.284196      -660.8066 
   5   2.0000     -24.284169      -660.8058 
   6   2.0000      -6.529692      -177.6819 
   7   2.0000      -4.748420      -129.2111 
   8   2.0000      -4.748407      -129.2107 
   9   2.0000      -4.745370      -129.1281 
  10   2.0000      -1.225742       -33.3541 
  11   2.0000      -1.168212       -31.7887 
  12   2.0000      -1.168159       -31.7872 
  13   2.0000      -1.133967       -30.8568 
  14   2.0000      -1.105644       -30.0861 
  15   2.0000      -0.650010       -17.6877 
  16   2.0000      -0.551802       -15.0153 
  17   2.0000      -0.551758       -15.0141 
  18   2.0000      -0.537588       -14.6285 
  19   2.0000      -0.473777       -12.8921 
  20   2.0000      -0.473673       -12.8893 
  21   2.0000      -0.460803       -12.5391 
  22   2.0000      -0.460757       -12.5378 
  23   2.0000      -0.446490       -12.1496 
  24   2.0000      -0.422716       -11.5027 
  25   2.0000      -0.403422       -10.9777 
  26   2.0000      -0.387810       -10.5528 
  27   2.0000      -0.387802       -10.5526 
  28   2.0000      -0.363711        -9.8971 
  29   2.0000      -0.363596        -9.8940 
  30   0.0000      -0.044651        -1.2150 
  31   0.0000       0.029670         0.8074 
  32   0.0000       0.030240         0.8229 
  33   0.0000       0.122015         3.3202 
  34   0.0000       0.165934         4.5153 
  35   0.0000       0.168964         4.5978 
  36   0.0000       0.169083         4.6010 
  37   0.0000       0.237230         6.4553 
  38   0.0000       0.327299         8.9062 
  39   0.0000       0.327441         8.9101 
  40   0.0000       0.380153        10.3445 
  41   0.0000       0.387303        10.5391 
  42   0.0000       0.387304        10.5391 
  43   0.0000       0.436392        11.8748 
  44   0.0000       0.436507        11.8780 
  45   0.0000       0.483916        13.1680 
  46   0.0000       0.489662        13.3244 
  47   0.0000       0.536130        14.5888 
  48   0.0000       0.536471        14.5981 
  49   0.0000       0.565752        15.3949 
  50   0.0000       0.602894        16.4056 
  51   0.0000       0.603316        16.4171 
  52   0.0000       0.657651        17.8956 
  53   0.0000       0.657983        17.9046 
  54   0.0000       0.697082        18.9686 
  55   0.0000       0.697440        18.9783 
  56   0.0000       0.701798        19.0969 
  57   0.0000       0.763912        20.7871 
  58   0.0000       0.860378        23.4121 
  59   0.0000       0.860676        23.4202 
  60   0.0000       0.869315        23.6553 
  61   0.0000       0.896984        24.4082 
  62   0.0000       1.027169        27.9507 
  63   0.0000       1.027497        27.9596 
  64   0.0000       1.060836        28.8668 
  65   0.0000       1.140041        31.0221 
  66   0.0000       1.140577        31.0367 
  67   0.0000       1.233835        33.5743 
  68   0.0000       1.234100        33.5816 
  69   0.0000       1.283687        34.9309 
  70   0.0000       1.283846        34.9352 
  71   0.0000       1.308391        35.6031 
  72   0.0000       1.308542        35.6072 
  73   0.0000       1.432736        38.9867 
  74   0.0000       1.740854        47.3711 
  75   0.0000       1.741357        47.3847 
  76   0.0000       1.795907        48.8691 
  77   0.0000       1.857937        50.5570 
  78   0.0000       1.858025        50.5594 
  79   0.0000       1.875215        51.0272 
  80   0.0000       1.875593        51.0375 
  81   0.0000       2.018936        54.9380 
  82   0.0000       2.019462        54.9524 
  83   0.0000       2.019808        54.9618 
  84   0.0000       2.050080        55.7855 
  85   0.0000       2.050142        55.7872 
  86   0.0000       2.124885        57.8211 
  87   0.0000       2.151181        58.5366 
  88   0.0000       2.211961        60.1905 
  89   0.0000       2.212088        60.1940 
  90   0.0000       2.309743        62.8513 
  91   0.0000       2.310369        62.8683 
  92   0.0000       2.311161        62.8899 
  93   0.0000       2.366190        64.3873 
  94   0.0000       2.471477        67.2523 
  95   0.0000       2.471886        67.2634 
  96   0.0000       2.513362        68.3920 
  97   0.0000       2.513539        68.3969 
  98   0.0000       2.522979        68.6537 
  99   0.0000       2.613677        71.1218 
 100   0.0000       2.640510        71.8519 
 101   0.0000       2.640626        71.8551 
 102   0.0000       2.640819        71.8603 
 103   0.0000       3.066484        83.4433 
 104   0.0000       3.066658        83.4480 
 105   0.0000       3.082996        83.8926 
 106   0.0000       3.083074        83.8947 
 107   0.0000       3.218873        87.5900 
 108   0.0000       3.337150        90.8085 
 109   0.0000       3.337207        90.8100 
 110   0.0000       3.337994        90.8314 
 111   0.0000       3.452547        93.9486 
 112   0.0000       3.452689        93.9524 
 113   0.0000       3.508409        95.4686 
 114   0.0000       3.620528        98.5196 
 115   0.0000       3.621083        98.5347 
 116   0.0000       3.683407       100.2306 
 117   0.0000       3.701847       100.7324 
 118   0.0000       3.799011       103.3763 
 119   0.0000       4.092734       111.3690 
 120   0.0000       4.093399       111.3870 
 121   0.0000       4.137642       112.5910 
 122   0.0000       4.815620       131.0397 
 123   0.0000       6.369866       173.3329 
 124   0.0000       6.384266       173.7247 
 125   0.0000       6.384303       173.7257 
 126   0.0000       6.616574       180.0461 
 127   0.0000       6.616721       180.0501 
 128   0.0000       6.622047       180.1951 
 129   0.0000       6.628341       180.3663 
 130   0.0000       6.628369       180.3671 
 131   0.0000       6.644429       180.8041 
 132   0.0000       6.644480       180.8055 
 133   0.0000       6.656996       181.1461 
 134   0.0000       6.657814       181.1683 
 135   0.0000       6.657840       181.1690 
 136   0.0000       6.659398       181.2114 
 137   0.0000       6.659411       181.2118 
 138   0.0000       6.663079       181.3116 
 139   0.0000       6.691163       182.0758 
 140   0.0000       6.691268       182.0787 
 141   0.0000       6.692976       182.1251 
 142   0.0000       6.697502       182.2483 
 143   0.0000       6.700135       182.3199 
 144   0.0000       6.704866       182.4487 
 145   0.0000       6.704896       182.4495 
 146   0.0000       6.720386       182.8710 
 147   0.0000       6.720488       182.8738 
 148   0.0000       6.726752       183.0442 
 149   0.0000       6.726763       183.0445 
 150   0.0000       6.765896       184.1094 
 151   0.0000       6.873382       187.0342 
 152   0.0000       6.877049       187.1340 
 153   0.0000       6.877089       187.1351 
 154   0.0000       6.924231       188.4179 
 155   0.0000       6.934849       188.7068 
 156   0.0000       6.936056       188.7397 
 157   0.0000       6.936241       188.7447 
 158   0.0000       7.775517       211.5826 
 159   0.0000       7.791341       212.0132 
 160   0.0000       7.792129       212.0346 
 161   0.0000       8.011646       218.0080 
 162   0.0000       8.055852       219.2109 
 163   0.0000       8.056236       219.2213 
 164   0.0000       8.060623       219.3407 
 165   0.0000       8.060776       219.3449 
 166   0.0000       8.158098       221.9931 
 167   0.0000       8.158152       221.9946 
 168   0.0000       8.178411       222.5459 
 169   0.0000       8.178510       222.5486 
 170   0.0000       8.223736       223.7792 
 171   0.0000       8.271556       225.0805 
 172   0.0000       8.271675       225.0837 
 173   0.0000       8.353474       227.3096 
 174   0.0000       8.402995       228.6571 
 175   0.0000       8.410802       228.8696 
 176   0.0000       8.411771       228.8959 
 177   0.0000       8.580214       233.4795 
 178   0.0000       8.580217       233.4796 
 179   0.0000       8.593569       233.8429 
 180   0.0000       8.643313       235.1965 
 181   0.0000       8.643413       235.1992 
 182   0.0000       8.685707       236.3501 
 183   0.0000       8.796177       239.3562 
 184   0.0000       8.796761       239.3720 
 185   0.0000       9.113342       247.9866 
 186   0.0000      15.806930       430.1284 
 187   0.0000      56.244343      1530.4864 
 188   0.0000      56.317271      1532.4708 
 189   0.0000      56.317377      1532.4737 
 190   0.0000      56.707269      1543.0832 
 191   0.0000      56.718545      1543.3901 

                    ********************************
                    * MULLIKEN POPULATION ANALYSIS *
                    ********************************

-----------------------
MULLIKEN ATOMIC CHARGES
-----------------------
   0 P :    0.951040
   1 F :   -0.159911
   2 F :   -0.159914
   3 F :   -0.159914
   4 F :   -0.235651
   5 F :   -0.235651
Sum of atomic charges:    0.0000000

--------------------------------
MULLIKEN REDUCED ORBITAL CHARGES
--------------------------------
  0 P s       :     4.935123  s :     4.935123
      pz      :     2.641040  p :     7.838527
      px      :     2.598767
      py      :     2.598720
      dz2     :     0.265220  d :     1.033884
      dxz     :     0.192269
      dyz     :     0.192355
      dx2y2   :     0.192013
      dxy     :     0.192026
      f0      :     0.059368  f :     0.241426
      f+1     :     0.042086
      f-1     :     0.042105
      f+2     :     0.014481
      f-2     :     0.014553
      f+3     :     0.047132
      f-3     :     0.021701
  1 F s       :     3.899509  s :     3.899509
      pz      :     1.892147  p :     5.246121
      px      :     1.827154
      py      :     1.526820
      dz2     :     0.001920  d :     0.013807
      dxz     :     0.000112
      dyz     :     0.003254
      dx2y2   :     0.004665
      dxy     :     0.003856
      f0      :     0.000049  f :     0.000475
      f+1     :     0.000012
      f-1     :     0.000106
      f+2     :     0.000069
      f-2     :     0.000005
      f+3     :     0.000112
      f-3     :     0.000123
  2 F s       :     3.899490  s :     3.899490
      pz      :     1.892049  p :     5.246143
      px      :     1.602298
      py      :     1.751796
      dz2     :     0.001919  d :     0.013806
      dxz     :     0.002466
      dyz     :     0.000900
      dx2y2   :     0.004057
      dxy     :     0.004464
      f0      :     0.000049  f :     0.000475
      f+1     :     0.000082
      f-1     :     0.000035
      f+2     :     0.000021
      f-2     :     0.000053
      f+3     :     0.000112
      f-3     :     0.000123
  3 F s       :     3.899490  s :     3.899490
      pz      :     1.892049  p :     5.246143
      px      :     1.602298
      py      :     1.751796
      dz2     :     0.001919  d :     0.013806
      dxz     :     0.002466
      dyz     :     0.000900
      dx2y2   :     0.004057
      dxy     :     0.004464
      f0      :     0.000049  f :     0.000475
      f+1     :     0.000082
      f-1     :     0.000035
      f+2     :     0.000021
      f-2     :     0.000053
      f+3     :     0.000112
      f-3     :     0.000123
  4 F s       :     3.910907  s :     3.910907
      pz      :     1.554379  p :     5.312013
      px      :     1.878732
      py      :     1.878901
      dz2     :     0.006023  d :     0.012320
      dxz     :     0.002937
      dyz     :     0.002936
      dx2y2   :     0.000212
      dxy     :     0.000212
      f0      :     0.000195  f :     0.000411
      f+1     :     0.000098
      f-1     :     0.000098
      f+2     :     0.000008
      f-2     :     0.000008
      f+3     :     0.000001
      f-3     :     0.000002
  5 F s       :     3.910907  s :     3.910907
      pz      :     1.554379  p :     5.312013
      px      :     1.878732
      py      :     1.878901
      dz2     :     0.006023  d :     0.012320
      dxz     :     0.002937
      dyz     :     0.002936
      dx2y2   :     0.000212
      dxy     :     0.000212
      f0      :     0.000195  f :     0.000411
      f+1     :     0.000098
      f-1     :     0.000098
      f+2     :     0.000008
      f-2     :     0.000008
      f+3     :     0.000001
      f-3     :     0.000002


                     *******************************
                     * LOEWDIN POPULATION ANALYSIS *
                     *******************************

----------------------
LOEWDIN ATOMIC CHARGES
----------------------
   0 P :   -0.066396
   1 F :    0.039871
   2 F :    0.039930
   3 F :    0.039930
   4 F :   -0.026668
   5 F :   -0.026668

-------------------------------
LOEWDIN REDUCED ORBITAL CHARGES
-------------------------------
  0 P s       :     4.632738  s :     4.632738
      pz      :     2.683940  p :     7.973178
      px      :     2.644546
      py      :     2.644692
      dz2     :     0.535469  d :     1.763556
      dxz     :     0.262620
      dyz     :     0.262708
      dx2y2   :     0.351188
      dxy     :     0.351571
      f0      :     0.178995  f :     0.696924
      f+1     :     0.120583
      f-1     :     0.120671
      f+2     :     0.035827
      f-2     :     0.036022
      f+3     :     0.115631
      f-3     :     0.089193
  1 F s       :     3.686021  s :     3.686021
      pz      :     1.843205  p :     5.250910
      px      :     1.774093
      py      :     1.633613
      dz2     :     0.003896  d :     0.022398
      dxz     :     0.000134
      dyz     :     0.004311
      dx2y2   :     0.010499
      dxy     :     0.003559
      f0      :     0.000065  f :     0.000799
      f+1     :     0.000011
      f-1     :     0.000190
      f+2     :     0.000107
      f-2     :     0.000009
      f+3     :     0.000129
      f-3     :     0.000288
  2 F s       :     3.685980  s :     3.685980
      pz      :     1.843090  p :     5.250898
      px      :     1.668957
      py      :     1.738851
      dz2     :     0.003895  d :     0.022393
      dxz     :     0.003261
      dyz     :     0.001181
      dx2y2   :     0.005279
      dxy     :     0.008778
      f0      :     0.000065  f :     0.000798
      f+1     :     0.000145
      f-1     :     0.000056
      f+2     :     0.000033
      f-2     :     0.000083
      f+3     :     0.000129
      f-3     :     0.000288
  3 F s       :     3.685980  s :     3.685980
      pz      :     1.843090  p :     5.250898
      px      :     1.668957
      py      :     1.738851
      dz2     :     0.003895  d :     0.022393
      dxz     :     0.003261
      dyz     :     0.001181
      dx2y2   :     0.005279
      dxy     :     0.008778
      f0      :     0.000065  f :     0.000798
      f+1     :     0.000145
      f-1     :     0.000056
      f+2     :     0.000033
      f-2     :     0.000083
      f+3     :     0.000129
      f-3     :     0.000288
  4 F s       :     3.700421  s :     3.700421
      pz      :     1.636753  p :     5.304643
      px      :     1.833857
      py      :     1.834033
      dz2     :     0.013127  d :     0.020853
      dxz     :     0.003584
      dyz     :     0.003585
      dx2y2   :     0.000278
      dxy     :     0.000279
      f0      :     0.000429  f :     0.000750
      f+1     :     0.000149
      f-1     :     0.000149
      f+2     :     0.000010
      f-2     :     0.000010
      f+3     :     0.000001
      f-3     :     0.000003
  5 F s       :     3.700421  s :     3.700421
      pz      :     1.636753  p :     5.304643
      px      :     1.833857
      py      :     1.834033
      dz2     :     0.013127  d :     0.020853
      dxz     :     0.003584
      dyz     :     0.003585
      dx2y2   :     0.000278
      dxy     :     0.000279
      f0      :     0.000429  f :     0.000750
      f+1     :     0.000149
      f-1     :     0.000149
      f+2     :     0.000010
      f-2     :     0.000010
      f+3     :     0.000001
      f-3     :     0.000003


                      *****************************
                      * MAYER POPULATION ANALYSIS *
                      *****************************

  NA   - Mulliken gross atomic population
  ZA   - Total nuclear charge
  QA   - Mulliken gross atomic charge
  VA   - Mayer's total valence
  BVA  - Mayer's bonded valence
  FA   - Mayer's free valence

  ATOM       NA         ZA         QA         VA         BVA        FA
  0 P     14.0490    15.0000     0.9510     5.9971     5.9971    -0.0000
  1 F      9.1599     9.0000    -0.1599     1.2471     1.2471    -0.0000
  2 F      9.1599     9.0000    -0.1599     1.2471     1.2471     0.0000
  3 F      9.1599     9.0000    -0.1599     1.2471     1.2471    -0.0000
  4 F      9.2357     9.0000    -0.2357     1.2034     1.2034     0.0000
  5 F      9.2357     9.0000    -0.2357     1.2034     1.2034     0.0000

  Mayer bond orders larger than 0.100000
B(  0-P ,  1-F ) :   1.2091 B(  0-P ,  2-F ) :   1.2092 B(  0-P ,  3-F ) :   1.2092 
B(  0-P ,  4-F ) :   1.1848 B(  0-P ,  5-F ) :   1.1848 

-------
TIMINGS
-------

Total SCF time: 0 days 0 hours 0 min 8 sec 

Total time                  ....       8.460 sec
Sum of individual times     ....       8.208 sec  ( 97.0%)

Fock matrix formation       ....       7.194 sec  ( 85.0%)
  Split-RI-J                ....       2.114 sec  ( 29.4% of F)
  XC integration            ....       5.016 sec  ( 69.7% of F)
    Basis function eval.    ....       1.533 sec  ( 30.6% of XC)
    Density eval.           ....       1.370 sec  ( 27.3% of XC)
    XC-Functional eval.     ....       0.264 sec  (  5.3% of XC)
    XC-Potential eval.      ....       1.477 sec  ( 29.4% of XC)
Diagonalization             ....       0.045 sec  (  0.5%)
Density matrix formation    ....       0.006 sec  (  0.1%)
Population analysis         ....       0.017 sec  (  0.2%)
Initial guess               ....       0.337 sec  (  4.0%)
Orbital Transformation      ....       0.000 sec  (  0.0%)
Orbital Orthonormalization  ....       0.000 sec  (  0.0%)
DIIS solution               ....       0.034 sec  (  0.4%)
SOSCF solution              ....       0.056 sec  (  0.7%)
Grid generation             ....       0.519 sec  (  6.1%)

Maximum memory used throughout the entire SCF-calculation: 62.4 MB

-------------------------   --------------------
FINAL SINGLE POINT ENERGY      -840.354684668211
-------------------------   --------------------


                            ***************************************
                            *     ORCA property calculations      *
                            ***************************************

                                    ---------------------
                                    Active property flags
                                    ---------------------
   (+) Dipole Moment


------------------------------------------------------------------------------
                       ORCA ELECTRIC PROPERTIES CALCULATION
------------------------------------------------------------------------------

Dipole Moment Calculation                       ... on
Quadrupole Moment Calculation                   ... off
Polarizability Calculation                      ... off
GBWName                                         ... PF5_min_sp.gbw
Electron density                                ... PF5_min_sp.scfp
The origin for moment calculation is the CENTER OF MASS  = ( 0.000000,  0.000044  0.000000)

-------------
DIPOLE MOMENT
-------------
                                X             Y             Z
Electronic contribution:     -0.00000       0.00043      -0.00000
Nuclear contribution   :      0.00000       0.00014       0.00000
                        -----------------------------------------
Total Dipole Moment    :     -0.00000       0.00056      -0.00000
                        -----------------------------------------
Magnitude (a.u.)       :      0.00056
Magnitude (Debye)      :      0.00143



--------------------
Rotational spectrum 
--------------------
 
Rotational constants in cm-1:     0.120629     0.100784     0.100686 
Rotational constants in MHz :  3616.355941  3021.442544  3018.499880 

 Dipole components along the rotational axes: 
x,y,z [a.u.] :    -0.000000     0.000564    -0.000000 
x,y,z [Debye]:    -0.000000     0.001434    -0.000000 

 

Timings for individual modules:

Sum of individual times         ...        8.801 sec (=   0.147 min)
GTO integral calculation        ...        0.300 sec (=   0.005 min)   3.4 %
SCF iterations                  ...        8.501 sec (=   0.142 min)  96.6 %
                             ****ORCA TERMINATED NORMALLY****
TOTAL RUN TIME: 0 days 0 hours 0 minutes 9 seconds 18 msec
