
                                 *****************
                                 * O   R   C   A *
                                 *****************

                                            #,                                       
                                            ###                                      
                                            ####                                     
                                            #####                                    
                                            ######                                   
                                           ########,                                 
                                     ,,################,,,,,                         
                               ,,#################################,,                 
                          ,,##########################################,,             
                       ,#########################################, ''#####,          
                    ,#############################################,,   '####,        
                  ,##################################################,,,,####,       
                ,###########''''           ''''###############################       
              ,#####''   ,,,,##########,,,,          '''####'''          '####       
            ,##' ,,,,###########################,,,                        '##       
           ' ,,###''''                  '''############,,,                           
         ,,##''                                '''############,,,,        ,,,,,,###''
      ,#''                                            '''#######################'''  
     '                                                          ''''####''''         
             ,#######,   #######,   ,#######,      ##                                
            ,#'     '#,  ##    ##  ,#'     '#,    #''#        ######   ,####,        
            ##       ##  ##   ,#'  ##            #'  '#       #        #'  '#        
            ##       ##  #######   ##           ,######,      #####,   #    #        
            '#,     ,#'  ##    ##  '#,     ,#' ,#      #,         ##   #,  ,#        
             '#######'   ##     ##  '#######'  #'      '#     #####' # '####'        



                  #######################################################
                  #                        -***-                        #
                  #          Department of theory and spectroscopy      #
                  #    Directorship and core code : Frank Neese         #
                  #        Max Planck Institute fuer Kohlenforschung    #
                  #                Kaiser Wilhelm Platz 1               #
                  #                 D-45470 Muelheim/Ruhr               #
                  #                      Germany                        #
                  #                                                     #
                  #                  All rights reserved                #
                  #                        -***-                        #
                  #######################################################



                         Program Version 5.0.4 -  RELEASE  -

 With contributions from (in alphabetic order):
   Daniel Aravena         : Magnetic Suceptibility
   Michael Atanasov       : Ab Initio Ligand Field Theory (pilot matlab implementation)
   Alexander A. Auer      : GIAO ZORA, VPT2 properties, NMR spectrum
   Ute Becker             : Parallelization
   Giovanni Bistoni       : ED, misc. LED, open-shell LED, HFLD
   Martin Brehm           : Molecular dynamics
   Dmytro Bykov           : SCF Hessian
   Vijay G. Chilkuri      : MRCI spin determinant printing, contributions to CSF-ICE
   Dipayan Datta          : RHF DLPNO-CCSD density
   Achintya Kumar Dutta   : EOM-CC, STEOM-CC
   Dmitry Ganyushin       : Spin-Orbit,Spin-Spin,Magnetic field MRCI
   Miquel Garcia          : C-PCM and meta-GGA Hessian, CC/C-PCM, Gaussian charge scheme
   Yang Guo               : DLPNO-NEVPT2, F12-NEVPT2, CIM, IAO-localization
   Andreas Hansen         : Spin unrestricted coupled pair/coupled cluster methods
   Benjamin Helmich-Paris : MC-RPA, TRAH-SCF, COSX integrals
   Lee Huntington         : MR-EOM, pCC
   Robert Izsak           : Overlap fitted RIJCOSX, COSX-SCS-MP3, EOM
   Marcus Kettner         : VPT2
   Christian Kollmar      : KDIIS, OOCD, Brueckner-CCSD(T), CCSD density, CASPT2, CASPT2-K
   Simone Kossmann        : Meta GGA functionals, TD-DFT gradient, OOMP2, MP2 Hessian
   Martin Krupicka        : Initial AUTO-CI
   Lucas Lang             : DCDCAS
   Marvin Lechner         : AUTO-CI (C++ implementation), FIC-MRCC
   Dagmar Lenk            : GEPOL surface, SMD
   Dimitrios Liakos       : Extrapolation schemes; Compound Job, initial MDCI parallelization
   Dimitrios Manganas     : Further ROCIS development; embedding schemes
   Dimitrios Pantazis     : SARC Basis sets
   Anastasios Papadopoulos: AUTO-CI, single reference methods and gradients
   Taras Petrenko         : DFT Hessian,TD-DFT gradient, ASA, ECA, R-Raman, ABS, FL, XAS/XES, NRVS
   Peter Pinski           : DLPNO-MP2, DLPNO-MP2 Gradient
   Christoph Reimann      : Effective Core Potentials
   Marius Retegan         : Local ZFS, SOC
   Christoph Riplinger    : Optimizer, TS searches, QM/MM, DLPNO-CCSD(T), (RO)-DLPNO pert. Triples
   Tobias Risthaus        : Range-separated hybrids, TD-DFT gradient, RPA, STAB
   Michael Roemelt        : Original ROCIS implementation
   Masaaki Saitow         : Open-shell DLPNO-CCSD energy and density
   Barbara Sandhoefer     : DKH picture change effects
   Avijit Sen             : IP-ROCIS
   Kantharuban Sivalingam : CASSCF convergence, NEVPT2, FIC-MRCI
   Bernardo de Souza      : ESD, SOC TD-DFT
   Georgi Stoychev        : AutoAux, RI-MP2 NMR, DLPNO-MP2 response
   Willem Van den Heuvel  : Paramagnetic NMR
   Boris Wezisla          : Elementary symmetry handling
   Frank Wennmohs         : Technical directorship


 We gratefully acknowledge several colleagues who have allowed us to
 interface, adapt or use parts of their codes:
   Stefan Grimme, W. Hujo, H. Kruse, P. Pracht,  : VdW corrections, initial TS optimization,
                  C. Bannwarth, S. Ehlert          DFT functionals, gCP, sTDA/sTD-DF
   Ed Valeev, F. Pavosevic, A. Kumar             : LibInt (2-el integral package), F12 methods
   Garnet Chan, S. Sharma, J. Yang, R. Olivares  : DMRG
   Ulf Ekstrom                                   : XCFun DFT Library
   Mihaly Kallay                                 : mrcc  (arbitrary order and MRCC methods)
   Jiri Pittner, Ondrej Demel                    : Mk-CCSD
   Frank Weinhold                                : gennbo (NPA and NBO analysis)
   Christopher J. Cramer and Donald G. Truhlar   : smd solvation model
   Lars Goerigk                                  : TD-DFT with DH, B97 family of functionals
   V. Asgeirsson, H. Jonsson                     : NEB implementation
   FAccTs GmbH                                   : IRC, NEB, NEB-TS, DLPNO-Multilevel, CI-OPT
                                                   MM, QMMM, 2- and 3-layer-ONIOM, Crystal-QMMM,
                                                   LR-CPCM, SF, NACMEs, symmetry and pop. for TD-DFT,
                                                   nearIR, NL-DFT gradient (VV10), updates on ESD,
                                                   ML-optimized integration grids
   S Lehtola, MJT Oliveira, MAL Marques          : LibXC Library
   Liviu Ungur et al                             : ANISO software


 Your calculation uses the libint2 library for the computation of 2-el integrals
 For citations please refer to: http://libint.valeyev.net

 Your ORCA version has been built with support for libXC version: 5.1.0
 For citations please refer to: https://tddft.org/programs/libxc/

 This ORCA versions uses:
   CBLAS   interface :  Fast vector & matrix operations
   LAPACKE interface :  Fast linear algebra routines
   Shared memory     :  Shared parallel matrices


================================================================================

----- Orbital basis set information -----
Your calculation utilizes the basis: def2-TZVP
   F. Weigend and R. Ahlrichs, Phys. Chem. Chem. Phys. 7, 3297 (2005).

----- AuxJ basis set information -----
Your calculation utilizes the auxiliary basis: def2/J
   F. Weigend, Phys. Chem. Chem. Phys. 8, 1057 (2006).

================================================================================
                                        WARNINGS
                       Please study these warnings very carefully!
================================================================================

WARNING: Old DensityContainer found on disk!
         Will remove this file - 
         If you want to keep old densities, please start your calculation with a different basename. 


WARNING: Geometry Optimization
  ===> : Switching off AutoStart
         For restart on a previous wavefunction, please use MOREAD

INFO   : the flag for use of the SHARK integral package has been found!

================================================================================
                                       INPUT FILE
================================================================================
NAME = PF5_ts_opt.inp
|  1> ! PBE def2-TZVP OptTS
|  2> 
|  3> # %geom
|  4> #   Calc_Hess true
|  5> # end
|  6> 
|  7> %geom
|  8>   inhess read
|  9>   inhessname "PF5_ts_guess.hess"
| 10> end
| 11> 
| 12> * xyz 0 1
| 13> P  0.0000  0.0000  0.0000  # Phosphorus (P)
| 14> F  0.0000  1.5340  0.0000  # Equatorial Fluorine (F1) 
| 15> F  1.4817 -0.4026  0.0000  # Equatorial Fluorine (F2)
| 16> F -1.4817 -0.4026  0.0000  # Equatorial Fluorine (F3)
| 17> F  0.0000 -0.4026  1.5232  # Axial Fluorine (F4)
| 18> F  0.0000 -0.4026 -1.5232  # Axial Fluorine (F5)
| 19> **                         ****END OF INPUT****
================================================================================

                       *****************************
                       * Geometry Optimization Run *
                       *****************************

Geometry optimization settings:
Update method            Update   .... Bofill
Choice of coordinates    CoordSys .... Z-matrix Internals
Initial Hessian          InHess   .... Read

Convergence Tolerances:
Energy Change            TolE     ....  5.0000e-06 Eh
Max. Gradient            TolMAXG  ....  3.0000e-04 Eh/bohr
RMS Gradient             TolRMSG  ....  1.0000e-04 Eh/bohr
Max. Displacement        TolMAXD  ....  4.0000e-03 bohr
RMS Displacement         TolRMSD  ....  2.0000e-03 bohr
Strict Convergence                ....  False
------------------------------------------------------------------------------
                        ORCA OPTIMIZATION COORDINATE SETUP
------------------------------------------------------------------------------

The optimization will be done in new redundant internal coordinates
Making redundant internal coordinates   ...  (new redundants) done
Following TS mode number                ...     0
Evaluating the initial hessian          ... (Reading Exact Hessian)...  
InHessName: PF5_ts_guess.hess	The file <PF5_ts_guess.hess> is opened as a .hess file
done
done
Diagonalizing the Hessian               .... done
Dimension of the hessian                .... 15
Lowest eigenvalues of the non projected Hessian:
 -0.082815276 -0.000070257 -0.000000028  0.000048929  0.180071905
done
Evaluating the coordinates              ...  done
Calculating the B-matrix                .... done
Calculating the G-matrix                .... done
Diagonalizing the G-matrix              .... done
The first mode is                       ....    3
The number of degrees of freedom        ....   12

    -----------------------------------------------------------------
                    Redundant Internal Coordinates


    -----------------------------------------------------------------
         Definition                    Initial Value    d2E/dq (diagonal element)
    -----------------------------------------------------------------
      1. B(F   1,P   0)                  1.5340         0.428440   
      2. B(F   2,P   0)                  1.5354         0.451544   
      3. B(F   3,P   0)                  1.5354         0.451544   
      4. B(F   4,P   0)                  1.5755         0.367603   
      5. B(F   5,P   0)                  1.5755         0.367603   
      6. A(F   1,P   0,F   3)          105.2011         0.107217   
      7. A(F   2,P   0,F   3)          149.5978         0.026577   
      8. A(F   1,P   0,F   4)          104.8054         0.111528   
      9. A(F   2,P   0,F   4)           86.1581         0.448267   
     10. A(F   3,P   0,F   4)           86.1581         0.448267   
     11. A(F   1,P   0,F   5)          104.8054         0.111528   
     12. A(F   2,P   0,F   5)           86.1581         0.448267   
     13. A(F   3,P   0,F   5)           86.1581         0.448267   
     14. A(F   4,P   0,F   5)          150.3892         0.040645   
     15. A(F   1,P   0,F   2)          105.2011         0.107217   
    -----------------------------------------------------------------

Number of atoms                         .... 6
Number of degrees of freedom            .... 15

         *************************************************************
         *                GEOMETRY OPTIMIZATION CYCLE   1            *
         *************************************************************
---------------------------------
CARTESIAN COORDINATES (ANGSTROEM)
---------------------------------
  P      0.000000    0.000000    0.000000
  F      0.000000    1.534000    0.000000
  F      1.481700   -0.402600    0.000000
  F     -1.481700   -0.402600    0.000000
  F      0.000000   -0.402600    1.523200
  F      0.000000   -0.402600   -1.523200

----------------------------
CARTESIAN COORDINATES (A.U.)
----------------------------
  NO LB      ZA    FRAG     MASS         X           Y           Z
   0 P    15.0000    0    30.974    0.000000    0.000000    0.000000
   1 F     9.0000    0    18.998    0.000000    2.898840    0.000000
   2 F     9.0000    0    18.998    2.800007   -0.760804    0.000000
   3 F     9.0000    0    18.998   -2.800007   -0.760804    0.000000
   4 F     9.0000    0    18.998    0.000000   -0.760804    2.878431
   5 F     9.0000    0    18.998    0.000000   -0.760804   -2.878431

--------------------------------
INTERNAL COORDINATES (ANGSTROEM)
--------------------------------
 P      0   0   0     0.000000000000     0.00000000     0.00000000
 F      1   0   0     1.534000000000     0.00000000     0.00000000
 F      1   2   0     1.535422303472   105.20111704     0.00000000
 F      1   2   3     1.535422303472   105.20111704   180.00000000
 F      1   2   3     1.575507854630   104.80538653    90.00000000
 F      1   2   3     1.575507854630   104.80538653   270.00000000

---------------------------
INTERNAL COORDINATES (A.U.)
---------------------------
 P      0   0   0     0.000000000000     0.00000000     0.00000000
 F      1   0   0     2.898839889435     0.00000000     0.00000000
 F      1   2   0     2.901527653477   105.20111704     0.00000000
 F      1   2   3     2.901527653477   105.20111704   180.00000000
 F      1   2   3     2.977278367092   104.80538653    90.00000000
 F      1   2   3     2.977278367092   104.80538653   270.00000000

---------------------
BASIS SET INFORMATION
---------------------
There are 2 groups of distinct atoms

 Group   1 Type P   : 14s9p3d1f contracted to 5s5p2d1f pattern {73211/51111/21/1}
 Group   2 Type F   : 11s6p2d1f contracted to 5s3p2d1f pattern {62111/411/11/1}

Atom   0P    basis set group =>   1
Atom   1F    basis set group =>   2
Atom   2F    basis set group =>   2
Atom   3F    basis set group =>   2
Atom   4F    basis set group =>   2
Atom   5F    basis set group =>   2
---------------------------------
AUXILIARY/J BASIS SET INFORMATION
---------------------------------
There are 2 groups of distinct atoms

 Group   1 Type P   : 14s5p5d2f1g contracted to 8s4p3d1f1g pattern {71111111/2111/311/2/1}
 Group   2 Type F   : 12s5p4d2f1g contracted to 6s4p3d1f1g pattern {711111/2111/211/2/1}

Atom   0P    basis set group =>   1
Atom   1F    basis set group =>   2
Atom   2F    basis set group =>   2
Atom   3F    basis set group =>   2
Atom   4F    basis set group =>   2
Atom   5F    basis set group =>   2
------------------------------------------------------------------------------
                           ORCA GTO INTEGRAL CALCULATION
                           -- RI-GTO INTEGRALS CHOSEN --
------------------------------------------------------------------------------
------------------------------------------------------------------------------
                   ___                                                        
                  /   \      - P O W E R E D   B Y -                         
                 /     \                                                     
                 |  |  |   _    _      __       _____    __    __             
                 |  |  |  | |  | |    /  \     |  _  \  |  |  /  |          
                  \  \/   | |  | |   /    \    | | | |  |  | /  /          
                 / \  \   | |__| |  /  /\  \   | |_| |  |  |/  /          
                |  |  |   |  __  | /  /__\  \  |    /   |      \           
                |  |  |   | |  | | |   __   |  |    \   |  |\   \          
                \     /   | |  | | |  |  |  |  | |\  \  |  | \   \       
                 \___/    |_|  |_| |__|  |__|  |_| \__\ |__|  \__/        
                                                                              
                      - O R C A' S   B I G   F R I E N D -                    
                                      &                                       
                       - I N T E G R A L  F E E D E R -                       
                                                                              
 v1 FN, 2020, v2 2021                                                         
------------------------------------------------------------------------------


Reading SHARK input file PF5_ts_opt.SHARKINP.tmp ... ok
----------------------
SHARK INTEGRAL PACKAGE
----------------------

Number of atoms                             ...      6
Number of basis functions                   ...    192
Number of shells                            ...     68
Maximum angular momentum                    ...      3
Integral batch strategy                     ... SHARK/LIBINT Hybrid
RI-J (if used) integral strategy            ... SPLIT-RIJ (Revised 2003 algorithm where possible)
Printlevel                                  ...      1
Contraction scheme used                     ... SEGMENTED contraction
Coulomb Range Separation                    ... NOT USED
Exchange Range Separation                   ... NOT USED
Finite Nucleus Model                        ... NOT USED
Auxiliary Coulomb fitting basis             ... AVAILABLE
   # of basis functions in Aux-J            ...    296
   # of shells in Aux-J                     ...     92
   Maximum angular momentum in Aux-J        ...      4
Auxiliary J/K fitting basis                 ... NOT available
Auxiliary Correlation fitting basis         ... NOT available
Auxiliary 'external' fitting basis          ... NOT available
Integral threshold                          ...     2.500000e-11
Primitive cut-off                           ...     2.500000e-12
Primitive pair pre-selection threshold      ...     2.500000e-12

Calculating pre-screening integrals         ... done (  0.1 sec) Dimension = 68
Organizing shell pair data                  ... done (  0.0 sec)
Shell pair information
Total number of shell pairs                 ...      2346
Shell pairs after pre-screening             ...      2148
Total number of primitive shell pairs       ...      8274
Primitive shell pairs kept                  ...      5612
          la=0 lb=0:    386 shell pairs
          la=1 lb=0:    561 shell pairs
          la=1 lb=1:    208 shell pairs
          la=2 lb=0:    316 shell pairs
          la=2 lb=1:    236 shell pairs
          la=2 lb=2:     76 shell pairs
          la=3 lb=0:    156 shell pairs
          la=3 lb=1:    120 shell pairs
          la=3 lb=2:     68 shell pairs
          la=3 lb=3:     21 shell pairs

Calculating one electron integrals          ... done (  0.0 sec)
Calculating RI/J V-Matrix + Cholesky decomp.... done (  0.0 sec)
Calculating Nuclear repulsion               ... done (  0.0 sec) ENN=    409.481044609994 Eh

SHARK setup successfully completed in   0.2 seconds

Maximum memory used throughout the entire GTOINT-calculation: 51.4 MB
-------------------------------------------------------------------------------
                                 ORCA SCF
-------------------------------------------------------------------------------

------------
SCF SETTINGS
------------
Hamiltonian:
 Density Functional     Method          .... DFT(GTOs)
 Exchange Functional    Exchange        .... PBE
   PBE kappa parameter   XKappa         ....  0.804000
   PBE mue parameter    XMuePBE         ....  0.219520
 Correlation Functional Correlation     .... PBE
   PBE beta parameter  CBetaPBE         ....  0.066725
 LDA part of GGA corr.  LDAOpt          .... PW91-LDA
 Gradients option       PostSCFGGA      .... off
   Density functional embedding theory  .... OFF
   NL short-range parameter             ....  6.400000
 RI-approximation to the Coulomb term is turned on
   Number of AuxJ basis functions       .... 296


General Settings:
 Integral files         IntName         .... PF5_ts_opt
 Hartree-Fock type      HFTyp           .... RHF
 Total Charge           Charge          ....    0
 Multiplicity           Mult            ....    1
 Number of Electrons    NEL             ....   60
 Basis Dimension        Dim             ....  192
 Nuclear Repulsion      ENuc            ....    409.4810446100 Eh

Convergence Acceleration:
 DIIS                   CNVDIIS         .... on
   Start iteration      DIISMaxIt       ....    12
   Startup error        DIISStart       ....  0.200000
   # of expansion vecs  DIISMaxEq       ....     5
   Bias factor          DIISBfac        ....   1.050
   Max. coefficient     DIISMaxC        ....  10.000
 Trust-Rad. Augm. Hess. CNVTRAH         .... auto
   Auto Start mean grad. ratio tolernc. ....  1.125000
   Auto Start start iteration           ....    20
   Auto Start num. interpolation iter.  ....    10
   Max. Number of Micro iterations      ....    16
   Max. Number of Macro iterations      .... Maxiter - #DIIS iter
   Number of Davidson start vectors     ....     2
   Converg. threshold I  (grad. norm)   ....   1.000e-05
   Converg. threshold II (energy diff.) ....   1.000e-08
   Grad. Scal. Fac. for Micro threshold ....   0.100
   Minimum threshold for Micro iter.    ....   0.010
   NR start threshold (gradient norm)   ....   0.001
   Initial trust radius                 ....   0.400
   Minimum AH scaling param. (alpha)    ....   1.000
   Maximum AH scaling param. (alpha)    .... 1000.000
   Orbital update algorithm             .... Taylor
   White noise on init. David. guess    .... on
   Maximum white noise                  ....   0.010
   Quad. conv. algorithm                .... NR
 SOSCF                  CNVSOSCF        .... on
   Start iteration      SOSCFMaxIt      ....   150
   Startup grad/error   SOSCFStart      ....  0.003300
 Level Shifting         CNVShift        .... on
   Level shift para.    LevelShift      ....    0.2500
   Turn off err/grad.   ShiftErr        ....    0.0010
 Zerner damping         CNVZerner       .... off
 Static damping         CNVDamp         .... on
   Fraction old density DampFac         ....    0.7000
   Max. Damping (<1)    DampMax         ....    0.9800
   Min. Damping (>=0)   DampMin         ....    0.0000
   Turn off err/grad.   DampErr         ....    0.1000
 Fernandez-Rico         CNVRico         .... off

SCF Procedure:
 Maximum # iterations   MaxIter         ....   125
 SCF integral mode      SCFMode         .... Direct
   Integral package                     .... SHARK and LIBINT hybrid scheme
 Reset frequency        DirectResetFreq ....    20
 Integral Threshold     Thresh          ....  2.500e-11 Eh
 Primitive CutOff       TCut            ....  2.500e-12 Eh

Convergence Tolerance:
 Convergence Check Mode ConvCheckMode   .... Total+1el-Energy
 Convergence forced     ConvForced      .... 0
 Energy Change          TolE            ....  1.000e-08 Eh
 1-El. energy change                    ....  1.000e-05 Eh
 Orbital Gradient       TolG            ....  1.000e-05
 Orbital Rotation angle TolX            ....  1.000e-05
 DIIS Error             TolErr          ....  5.000e-07


Diagonalization of the overlap matrix:
Smallest eigenvalue                        ... 3.002e-03
Time for diagonalization                   ...    0.005 sec
Threshold for overlap eigenvalues          ... 1.000e-08
Number of eigenvalues below threshold      ... 0
Time for construction of square roots      ...    0.003 sec
Total time needed                          ...    0.009 sec

Time for model grid setup =    0.082 sec

------------------------------
INITIAL GUESS: MODEL POTENTIAL
------------------------------
Loading Hartree-Fock densities                     ... done
Calculating cut-offs                               ... done
Initializing the effective Hamiltonian             ... done
Setting up the integral package (SHARK)            ... done
Starting the Coulomb interaction                   ... done (   0.1 sec)
Reading the grid                                   ... done
Mapping shells                                     ... done
Starting the XC term evaluation                    ... done (   0.2 sec)
  promolecular density results
     # of electrons  =     59.999879468
     EX              =    -72.681181853
     EC              =     -2.183784478
     EX+EC           =    -74.864966331
Transforming the Hamiltonian                       ... done (   0.0 sec)
Diagonalizing the Hamiltonian                      ... done (   0.0 sec)
Back transforming the eigenvectors                 ... done (   0.0 sec)
Now organizing SCF variables                       ... done
                      ------------------
                      INITIAL GUESS DONE (   0.4 sec)
                      ------------------
-------------------
DFT GRID GENERATION
-------------------

General Integration Accuracy     IntAcc      ... 4.388
Radial Grid Type                 RadialGrid  ... OptM3 with GC (2021)
Angular Grid (max. ang.)         AngularGrid ... 4 (Lebedev-302)
Angular grid pruning method      GridPruning ... 4 (adaptive)
Weight generation scheme         WeightScheme... Becke
Basis function cutoff            BFCut       ... 1.0000e-11
Integration weight cutoff        WCut        ... 1.0000e-14
Angular grids for H and He will be reduced by one unit
Partially contracted basis set               ... off
Rotationally invariant grid construction     ... off

Total number of grid points                  ...    37908
Total number of batches                      ...      597
Average number of points per batch           ...       63
Average number of grid points per atom       ...     6318
Time for grid setup =    0.417 sec

--------------
SCF ITERATIONS
--------------
ITER       Energy         Delta-E        Max-DP      RMS-DP      [F,P]     Damp
               ***  Starting incremental Fock matrix formation  ***
  0   -840.1965761204   0.000000000000 0.15256674  0.00136362  0.1795762 0.7000
  1   -840.2698967880  -0.073320667595 0.07801808  0.00069120  0.0574853 0.7000
                               ***Turning on DIIS***
  2   -840.2902997186  -0.020402930575 0.05440652  0.00055215  0.0050333 0.0000
  3   -840.3362806629  -0.045980944325 0.03937945  0.00034547  0.0289615 0.0000
  4   -840.3406005428  -0.004319879867 0.00824995  0.00007966  0.0048215 0.0000
                      *** Initiating the SOSCF procedure ***
                           *** Shutting down DIIS ***
                      *** Re-Reading the Fockian *** 
                      *** Removing any level shift *** 
ITER      Energy       Delta-E        Grad      Rot      Max-DP    RMS-DP
  5   -840.34072319  -0.0001226506  0.000520  0.000520  0.000866  0.000023
               *** Restarting incremental Fock matrix formation ***
  6   -840.34073478  -0.0000115908  0.000218  0.000416  0.001065  0.000016
  7   -840.34073219   0.0000025964  0.000484  0.000344  0.000400  0.000009
  8   -840.34073600  -0.0000038102  0.000035  0.000049  0.000298  0.000003
  9   -840.34073598   0.0000000186  0.000056  0.000032  0.000155  0.000001
 10   -840.34073602  -0.0000000403  0.000008  0.000012  0.000041  0.000001
 11   -840.34073602   0.0000000021  0.000008  0.000005  0.000027  0.000000
                  ***Gradient check signals convergence***
              ***Rediagonalizing the Fockian in SOSCF/NRSCF***

               *****************************************************
               *                     SUCCESS                       *
               *           SCF CONVERGED AFTER  12 CYCLES          *
               *****************************************************


----------------
TOTAL SCF ENERGY
----------------

Total Energy       :         -840.34073603 Eh          -22866.83395 eV

Components:
Nuclear Repulsion  :          409.48104461 Eh           11142.54570 eV
Electronic Energy  :        -1249.82178064 Eh          -34009.37965 eV
One Electron Energy:        -1982.99731032 Eh          -53960.10009 eV
Two Electron Energy:          733.17552968 Eh           19950.72044 eV

Virial components:
Potential Energy   :        -1678.88448558 Eh          -45684.76942 eV
Kinetic Energy     :          838.54374955 Eh           22817.93547 eV
Virial Ratio       :            2.00214298


DFT components:
N(Alpha)           :       30.000034381955 electrons
N(Beta)            :       30.000034381955 electrons
N(Total)           :       60.000068763911 electrons
E(X)               :      -73.059377727858 Eh       
E(C)               :       -2.177655307585 Eh       
E(XC)              :      -75.237033035443 Eh       
DFET-embed. en.    :        0.000000000000 Eh       

---------------
SCF CONVERGENCE
---------------

  Last Energy change         ...   -1.1254e-08  Tolerance :   1.0000e-08
  Last MAX-Density change    ...    5.2935e-06  Tolerance :   1.0000e-07
  Last RMS-Density change    ...    9.9673e-08  Tolerance :   5.0000e-09
  Last Orbital Gradient      ...    2.0585e-06  Tolerance :   1.0000e-05
  Last Orbital Rotation      ...    2.7016e-06  Tolerance :   1.0000e-05

             **** THE GBW FILE WAS UPDATED (PF5_ts_opt.gbw) ****
             **** DENSITY PF5_ts_opt.scfp WAS UPDATED ****
             **** ENERGY FILE WAS UPDATED (PF5_ts_opt.en.tmp) ****
             **** THE GBW FILE WAS UPDATED (PF5_ts_opt.gbw) ****
             **** DENSITY PF5_ts_opt.scfp WAS UPDATED ****
----------------
ORBITAL ENERGIES
----------------

  NO   OCC          E(Eh)            E(eV) 
   0   2.0000     -76.544985     -2082.8949 
   1   2.0000     -24.340267      -662.3323 
   2   2.0000     -24.301189      -661.2690 
   3   2.0000     -24.301183      -661.2688 
   4   2.0000     -24.288913      -660.9349 
   5   2.0000     -24.288905      -660.9347 
   6   2.0000      -6.519034      -177.3919 
   7   2.0000      -4.738650      -128.9452 
   8   2.0000      -4.735655      -128.8637 
   9   2.0000      -4.735374      -128.8561 
  10   2.0000      -1.238519       -33.7018 
  11   2.0000      -1.178103       -32.0578 
  12   2.0000      -1.165043       -31.7024 
  13   2.0000      -1.144642       -31.1473 
  14   2.0000      -1.104629       -30.0585 
  15   2.0000      -0.647206       -17.6114 
  16   2.0000      -0.555963       -15.1285 
  17   2.0000      -0.549290       -14.9469 
  18   2.0000      -0.543377       -14.7860 
  19   2.0000      -0.487868       -13.2756 
  20   2.0000      -0.473899       -12.8954 
  21   2.0000      -0.467822       -12.7301 
  22   2.0000      -0.458038       -12.4639 
  23   2.0000      -0.446849       -12.1594 
  24   2.0000      -0.413360       -11.2481 
  25   2.0000      -0.406203       -11.0534 
  26   2.0000      -0.388220       -10.5640 
  27   2.0000      -0.386540       -10.5183 
  28   2.0000      -0.384753       -10.4697 
  29   2.0000      -0.339957        -9.2507 
  30   0.0000      -0.035132        -0.9560 
  31   0.0000       0.028194         0.7672 
  32   0.0000       0.104450         2.8422 
  33   0.0000       0.108381         2.9492 
  34   0.0000       0.161403         4.3920 
  35   0.0000       0.173672         4.7258 
  36   0.0000       0.205179         5.5832 
  37   0.0000       0.215950         5.8763 
  38   0.0000       0.341645         9.2966 
  39   0.0000       0.385444        10.4885 
  40   0.0000       0.385934        10.5018 
  41   0.0000       0.387893        10.5551 
  42   0.0000       0.394924        10.7464 
  43   0.0000       0.448653        12.2085 
  44   0.0000       0.468912        12.7597 
  45   0.0000       0.477669        12.9980 
  46   0.0000       0.481984        13.1155 
  47   0.0000       0.519089        14.1251 
  48   0.0000       0.526914        14.3381 
  49   0.0000       0.572056        15.5664 
  50   0.0000       0.596270        16.2253 
  51   0.0000       0.599364        16.3095 
  52   0.0000       0.675340        18.3769 
  53   0.0000       0.700654        19.0658 
  54   0.0000       0.717272        19.5180 
  55   0.0000       0.722631        19.6638 
  56   0.0000       0.726205        19.7610 
  57   0.0000       0.744626        20.2623 
  58   0.0000       0.790589        21.5130 
  59   0.0000       0.884737        24.0749 
  60   0.0000       0.888618        24.1805 
  61   0.0000       0.961331        26.1591 
  62   0.0000       0.962469        26.1901 
  63   0.0000       0.969987        26.3947 
  64   0.0000       1.142001        31.0754 
  65   0.0000       1.145384        31.1675 
  66   0.0000       1.146569        31.1997 
  67   0.0000       1.154837        31.4247 
  68   0.0000       1.246167        33.9099 
  69   0.0000       1.258911        34.2567 
  70   0.0000       1.331694        36.2372 
  71   0.0000       1.400073        38.0979 
  72   0.0000       1.407325        38.2953 
  73   0.0000       1.459713        39.7208 
  74   0.0000       1.639528        44.6138 
  75   0.0000       1.785392        48.5830 
  76   0.0000       1.808871        49.2219 
  77   0.0000       1.830416        49.8082 
  78   0.0000       1.838312        50.0230 
  79   0.0000       1.856113        50.5074 
  80   0.0000       1.861109        50.6433 
  81   0.0000       1.867071        50.8056 
  82   0.0000       1.913534        52.0699 
  83   0.0000       2.076025        56.4915 
  84   0.0000       2.138420        58.1894 
  85   0.0000       2.141979        58.2862 
  86   0.0000       2.171511        59.0898 
  87   0.0000       2.177437        59.2511 
  88   0.0000       2.198495        59.8241 
  89   0.0000       2.362101        64.2760 
  90   0.0000       2.394699        65.1631 
  91   0.0000       2.404021        65.4167 
  92   0.0000       2.445567        66.5473 
  93   0.0000       2.460071        66.9419 
  94   0.0000       2.467483        67.1436 
  95   0.0000       2.509789        68.2948 
  96   0.0000       2.529621        68.8345 
  97   0.0000       2.556014        69.5527 
  98   0.0000       2.564262        69.7771 
  99   0.0000       2.589094        70.4528 
 100   0.0000       2.631544        71.6080 
 101   0.0000       2.649552        72.0980 
 102   0.0000       2.658326        72.3367 
 103   0.0000       3.098516        84.3149 
 104   0.0000       3.138962        85.4155 
 105   0.0000       3.157964        85.9326 
 106   0.0000       3.183433        86.6256 
 107   0.0000       3.215267        87.4919 
 108   0.0000       3.243266        88.2537 
 109   0.0000       3.293120        89.6103 
 110   0.0000       3.385136        92.1142 
 111   0.0000       3.395534        92.3972 
 112   0.0000       3.401577        92.5616 
 113   0.0000       3.474220        94.5383 
 114   0.0000       3.579924        97.4147 
 115   0.0000       3.673315        99.9560 
 116   0.0000       3.697785       100.6219 
 117   0.0000       3.698118       100.6309 
 118   0.0000       3.905814       106.2826 
 119   0.0000       4.120531       112.1253 
 120   0.0000       4.163420       113.2924 
 121   0.0000       4.353437       118.4630 
 122   0.0000       4.387482       119.3895 
 123   0.0000       6.374879       173.4693 
 124   0.0000       6.400269       174.1602 
 125   0.0000       6.410296       174.4330 
 126   0.0000       6.612955       179.9477 
 127   0.0000       6.614777       179.9972 
 128   0.0000       6.620911       180.1641 
 129   0.0000       6.636067       180.5766 
 130   0.0000       6.640985       180.7104 
 131   0.0000       6.643313       180.7737 
 132   0.0000       6.643828       180.7877 
 133   0.0000       6.643969       180.7916 
 134   0.0000       6.666873       181.4148 
 135   0.0000       6.669505       181.4865 
 136   0.0000       6.670756       181.5205 
 137   0.0000       6.672275       181.5618 
 138   0.0000       6.678554       181.7327 
 139   0.0000       6.685071       181.9100 
 140   0.0000       6.685344       181.9175 
 141   0.0000       6.686077       181.9374 
 142   0.0000       6.687835       181.9852 
 143   0.0000       6.688226       181.9959 
 144   0.0000       6.690305       182.0525 
 145   0.0000       6.710183       182.5934 
 146   0.0000       6.722035       182.9159 
 147   0.0000       6.726708       183.0430 
 148   0.0000       6.739211       183.3833 
 149   0.0000       6.740544       183.4195 
 150   0.0000       6.821573       185.6244 
 151   0.0000       6.888073       187.4340 
 152   0.0000       6.914027       188.1402 
 153   0.0000       6.918805       188.2703 
 154   0.0000       6.927946       188.5190 
 155   0.0000       6.995212       190.3494 
 156   0.0000       6.998730       190.4451 
 157   0.0000       7.006380       190.6533 
 158   0.0000       7.802377       212.3135 
 159   0.0000       7.840263       213.3444 
 160   0.0000       7.913097       215.3263 
 161   0.0000       8.001848       217.7413 
 162   0.0000       8.052720       219.1257 
 163   0.0000       8.052819       219.1283 
 164   0.0000       8.077910       219.8111 
 165   0.0000       8.087429       220.0701 
 166   0.0000       8.183845       222.6938 
 167   0.0000       8.199884       223.1302 
 168   0.0000       8.201841       223.1834 
 169   0.0000       8.202222       223.1938 
 170   0.0000       8.223245       223.7659 
 171   0.0000       8.359982       227.4867 
 172   0.0000       8.422693       229.1931 
 173   0.0000       8.444147       229.7769 
 174   0.0000       8.452967       230.0169 
 175   0.0000       8.488863       230.9937 
 176   0.0000       8.495082       231.1629 
 177   0.0000       8.517400       231.7702 
 178   0.0000       8.521298       231.8763 
 179   0.0000       8.593671       233.8457 
 180   0.0000       8.610071       234.2920 
 181   0.0000       8.620997       234.5892 
 182   0.0000       8.631281       234.8691 
 183   0.0000       8.796750       239.3717 
 184   0.0000       8.953014       243.6239 
 185   0.0000       8.999400       244.8861 
 186   0.0000      16.047657       436.6789 
 187   0.0000      56.305526      1532.1512 
 188   0.0000      56.326541      1532.7231 
 189   0.0000      56.502525      1537.5119 
 190   0.0000      56.527767      1538.1987 
 191   0.0000      56.685165      1542.4818 

                    ********************************
                    * MULLIKEN POPULATION ANALYSIS *
                    ********************************

-----------------------
MULLIKEN ATOMIC CHARGES
-----------------------
   0 P :    0.917472
   1 F :   -0.149990
   2 F :   -0.175483
   3 F :   -0.175483
   4 F :   -0.208258
   5 F :   -0.208258
Sum of atomic charges:   -0.0000000

--------------------------------
MULLIKEN REDUCED ORBITAL CHARGES
--------------------------------
  0 P s       :     4.929209  s :     4.929209
      pz      :     2.618377  p :     7.820082
      px      :     2.609800
      py      :     2.591905
      dz2     :     0.255602  d :     1.072178
      dxz     :     0.202859
      dyz     :     0.194971
      dx2y2   :     0.218787
      dxy     :     0.199959
      f0      :     0.058294  f :     0.261059
      f+1     :     0.041818
      f-1     :     0.037464
      f+2     :     0.033082
      f-2     :     0.007979
      f+3     :     0.048550
      f-3     :     0.033872
  1 F s       :     3.894702  s :     3.894702
      pz      :     1.851186  p :     5.240065
      px      :     1.852635
      py      :     1.536245
      dz2     :     0.001763  d :     0.014714
      dxz     :     0.000063
      dyz     :     0.003927
      dx2y2   :     0.005035
      dxy     :     0.003926
      f0      :     0.000050  f :     0.000509
      f+1     :     0.000009
      f-1     :     0.000090
      f+2     :     0.000084
      f-2     :     0.000004
      f+3     :     0.000125
      f-3     :     0.000147
  2 F s       :     3.892527  s :     3.892527
      pz      :     1.890056  p :     5.267646
      px      :     1.571124
      py      :     1.806466
      dz2     :     0.002211  d :     0.014789
      dxz     :     0.003398
      dyz     :     0.000435
      dx2y2   :     0.004534
      dxy     :     0.004210
      f0      :     0.000053  f :     0.000521
      f+1     :     0.000114
      f-1     :     0.000018
      f+2     :     0.000061
      f-2     :     0.000025
      f+3     :     0.000123
      f-3     :     0.000127
  3 F s       :     3.892527  s :     3.892527
      pz      :     1.890056  p :     5.267646
      px      :     1.571124
      py      :     1.806466
      dz2     :     0.002211  d :     0.014789
      dxz     :     0.003398
      dyz     :     0.000435
      dx2y2   :     0.004534
      dxy     :     0.004210
      f0      :     0.000053  f :     0.000521
      f+1     :     0.000114
      f-1     :     0.000018
      f+2     :     0.000061
      f-2     :     0.000025
      f+3     :     0.000123
      f-3     :     0.000127
  4 F s       :     3.900947  s :     3.900947
      pz      :     1.573024  p :     5.293317
      px      :     1.901440
      py      :     1.818852
      dz2     :     0.005723  d :     0.013535
      dxz     :     0.003049
      dyz     :     0.003804
      dx2y2   :     0.000595
      dxy     :     0.000364
      f0      :     0.000176  f :     0.000460
      f+1     :     0.000095
      f-1     :     0.000125
      f+2     :     0.000035
      f-2     :     0.000021
      f+3     :     0.000005
      f-3     :     0.000003
  5 F s       :     3.900947  s :     3.900947
      pz      :     1.573024  p :     5.293317
      px      :     1.901440
      py      :     1.818852
      dz2     :     0.005723  d :     0.013535
      dxz     :     0.003049
      dyz     :     0.003804
      dx2y2   :     0.000595
      dxy     :     0.000364
      f0      :     0.000176  f :     0.000460
      f+1     :     0.000095
      f-1     :     0.000125
      f+2     :     0.000035
      f-2     :     0.000021
      f+3     :     0.000005
      f-3     :     0.000003


                     *******************************
                     * LOEWDIN POPULATION ANALYSIS *
                     *******************************

----------------------
LOEWDIN ATOMIC CHARGES
----------------------
   0 P :   -0.180982
   1 F :    0.081094
   2 F :    0.048218
   3 F :    0.048218
   4 F :    0.001726
   5 F :    0.001726

-------------------------------
LOEWDIN REDUCED ORBITAL CHARGES
-------------------------------
  0 P s       :     4.601278  s :     4.601278
      pz      :     2.671539  p :     7.982698
      px      :     2.678372
      py      :     2.632787
      dz2     :     0.513269  d :     1.840269
      dxz     :     0.273780
      dyz     :     0.300797
      dx2y2   :     0.439495
      dxy     :     0.312927
      f0      :     0.172487  f :     0.756737
      f+1     :     0.127066
      f-1     :     0.113197
      f+2     :     0.087437
      f-2     :     0.017519
      f+3     :     0.130688
      f-3     :     0.108344
  1 F s       :     3.665129  s :     3.665129
      pz      :     1.793539  p :     5.230479
      px      :     1.794890
      py      :     1.642051
      dz2     :     0.003677  d :     0.022476
      dxz     :     0.000083
      dyz     :     0.004023
      dx2y2   :     0.010661
      dxy     :     0.004033
      f0      :     0.000062  f :     0.000821
      f+1     :     0.000011
      f-1     :     0.000185
      f+2     :     0.000103
      f-2     :     0.000009
      f+3     :     0.000157
      f-3     :     0.000295
  2 F s       :     3.662755  s :     3.662755
      pz      :     1.838150  p :     5.263065
      px      :     1.661897
      py      :     1.763018
      dz2     :     0.004252  d :     0.025034
      dxz     :     0.005111
      dyz     :     0.000520
      dx2y2   :     0.009469
      dxy     :     0.005681
      f0      :     0.000083  f :     0.000929
      f+1     :     0.000197
      f-1     :     0.000027
      f+2     :     0.000108
      f-2     :     0.000042
      f+3     :     0.000250
      f-3     :     0.000221
  3 F s       :     3.662755  s :     3.662755
      pz      :     1.838150  p :     5.263065
      px      :     1.661897
      py      :     1.763018
      dz2     :     0.004252  d :     0.025034
      dxz     :     0.005111
      dyz     :     0.000520
      dx2y2   :     0.009469
      dxy     :     0.005681
      f0      :     0.000083  f :     0.000929
      f+1     :     0.000197
      f-1     :     0.000027
      f+2     :     0.000108
      f-2     :     0.000042
      f+3     :     0.000250
      f-3     :     0.000221
  4 F s       :     3.685798  s :     3.685798
      pz      :     1.655406  p :     5.289062
      px      :     1.854630
      py      :     1.779026
      dz2     :     0.011903  d :     0.022596
      dxz     :     0.004398
      dyz     :     0.005073
      dx2y2   :     0.000800
      dxy     :     0.000423
      f0      :     0.000349  f :     0.000818
      f+1     :     0.000158
      f-1     :     0.000214
      f+2     :     0.000052
      f-2     :     0.000034
      f+3     :     0.000007
      f-3     :     0.000005
  5 F s       :     3.685798  s :     3.685798
      pz      :     1.655406  p :     5.289062
      px      :     1.854630
      py      :     1.779026
      dz2     :     0.011903  d :     0.022596
      dxz     :     0.004398
      dyz     :     0.005073
      dx2y2   :     0.000800
      dxy     :     0.000423
      f0      :     0.000349  f :     0.000818
      f+1     :     0.000158
      f-1     :     0.000214
      f+2     :     0.000052
      f-2     :     0.000034
      f+3     :     0.000007
      f-3     :     0.000005


                      *****************************
                      * MAYER POPULATION ANALYSIS *
                      *****************************

  NA   - Mulliken gross atomic population
  ZA   - Total nuclear charge
  QA   - Mulliken gross atomic charge
  VA   - Mayer's total valence
  BVA  - Mayer's bonded valence
  FA   - Mayer's free valence

  ATOM       NA         ZA         QA         VA         BVA        FA
  0 P     14.0825    15.0000     0.9175     6.0836     6.0836    -0.0000
  1 F      9.1500     9.0000    -0.1500     1.2832     1.2832     0.0000
  2 F      9.1755     9.0000    -0.1755     1.2365     1.2365    -0.0000
  3 F      9.1755     9.0000    -0.1755     1.2365     1.2365    -0.0000
  4 F      9.2083     9.0000    -0.2083     1.1910     1.1910    -0.0000
  5 F      9.2083     9.0000    -0.2083     1.1910     1.1910     0.0000

  Mayer bond orders larger than 0.100000
B(  0-P ,  1-F ) :   1.2452 B(  0-P ,  2-F ) :   1.2318 B(  0-P ,  3-F ) :   1.2318 
B(  0-P ,  4-F ) :   1.1874 B(  0-P ,  5-F ) :   1.1874 

-------
TIMINGS
-------

Total SCF time: 0 days 0 hours 0 min 10 sec 

Total time                  ....      10.846 sec
Sum of individual times     ....      10.556 sec  ( 97.3%)

Fock matrix formation       ....       9.553 sec  ( 88.1%)
  Split-RI-J                ....       2.678 sec  ( 28.0% of F)
  XC integration            ....       6.812 sec  ( 71.3% of F)
    Basis function eval.    ....       2.050 sec  ( 30.1% of XC)
    Density eval.           ....       1.943 sec  ( 28.5% of XC)
    XC-Functional eval.     ....       0.348 sec  (  5.1% of XC)
    XC-Potential eval.      ....       1.929 sec  ( 28.3% of XC)
Diagonalization             ....       0.049 sec  (  0.5%)
Density matrix formation    ....       0.007 sec  (  0.1%)
Population analysis         ....       0.021 sec  (  0.2%)
Initial guess               ....       0.320 sec  (  3.0%)
Orbital Transformation      ....       0.000 sec  (  0.0%)
Orbital Orthonormalization  ....       0.000 sec  (  0.0%)
DIIS solution               ....       0.052 sec  (  0.5%)
SOSCF solution              ....       0.055 sec  (  0.5%)
Grid generation             ....       0.499 sec  (  4.6%)

Maximum memory used throughout the entire SCF-calculation: 63.8 MB

-------------------------   --------------------
FINAL SINGLE POINT ENERGY      -840.340736028926
-------------------------   --------------------

------------------------------------------------------------------------------
                         ORCA SCF GRADIENT CALCULATION
------------------------------------------------------------------------------

Gradient of the Kohn-Sham DFT energy:
Kohn-Sham wavefunction type      ... RKS
Hartree-Fock exchange scaling    ...    0.000
Number of operators              ...    1
Number of atoms                  ...    6
Basis set dimensions             ...  192
Integral neglect threshold       ... 2.5e-11
Integral primitive cutoff        ... 2.5e-12
SHARK Integral package           ... ON

Nuc. rep. gradient       (SHARK) ... done (  0.0 sec)
HCore & Overlap gradient (SHARK) ... done (  0.1 sec)
RI-J gradient            (SHARK) ... done (  1.6 sec)
Exchange-correlation gradient    ... done

------------------
CARTESIAN GRADIENT
------------------

   1   P   :    0.000000001    0.019382925   -0.000000001
   2   F   :   -0.000000001   -0.007205157   -0.000000000
   3   F   :   -0.047554107    0.000754943   -0.000000001
   4   F   :    0.047554106    0.000754943    0.000000000
   5   F   :   -0.000000001   -0.006843827   -0.024055822
   6   F   :    0.000000001   -0.006843826    0.024055823

Difference to translation invariance:
           :    0.0000000000   -0.0000000000    0.0000000000

Difference to rotation invariance:
           :    0.0000000004   -0.0000000008    0.0000000009

Norm of the cartesian gradient     ...    0.0787564549
RMS gradient                       ...    0.0185630744
MAX gradient                       ...    0.0475541066

-------
TIMINGS
-------

Total SCF gradient time            ...        3.942 sec

One electron gradient       ....       0.108 sec  (  2.7%)
RI-J Coulomb gradient       ....       1.626 sec  ( 41.2%)
XC gradient                 ....       2.013 sec  ( 51.1%)

Maximum memory used throughout the entire SCFGRAD-calculation: 61.5 MB
------------------------------------------------------------------------------
                         ORCA GEOMETRY RELAXATION STEP
------------------------------------------------------------------------------

Reading the OPT-File                    .... done
Getting information on internals        .... done
Copying old internal coords+grads       .... done
Making the new internal coordinates     .... (new redundants).... done
Validating the new internal coordinates .... (new redundants).... done
Calculating the B-matrix                .... done
Calculating the G,G- and P matrices     .... done
Transforming gradient to internals      .... done
Projecting the internal gradient        .... done
Number of atoms                         ....   6
Number of internal coordinates          ....  15
Current Energy                          ....  -840.340736029 Eh
Current gradient norm                   ....     0.078756455 Eh/bohr
Maximum allowed component of the step   ....  0.300
Current trust radius                    ....  0.300
Evaluating the initial hessian          ....  (read) 
(Reading Exact Hessian)...  
InHessName: PF5_ts_guess.hess	The file <PF5_ts_guess.hess> is opened as a .hess file
done
done
Diagonalizing the Hessian               .... done
Dimension of the hessian                .... 15
Lowest eigenvalues of the non projected Hessian:
 -0.082815276 -0.000070257 -0.000000028  0.000048929  0.180071905
done
Projecting the Hessian                  .... done
Diagonalizing the Hessian               .... done
Dimension of the hessian                ....  15
Lowest eigenvalues of the Hessian:
 -0.082726906  0.179820093  0.192903647  0.195701344  0.262636467
Hessian has   1 negative eigenvalues
Taking P-RFO step
Searching for lambda that maximizes along the lowest mode
TS mode is mode number   0 with eigenvalue  -0.08272691 and components:
   1.    0.00577297
   2.    0.01642677
   3.    0.01642677
   4.   -0.01950668
   5.   -0.01950667
   6.   -0.29979530
   7.    0.59959058
   8.    0.27669027
   9.    0.00379510
  10.    0.00379510
  11.    0.27669030
  12.    0.00379509
  13.    0.00379509
  14.   -0.55338056
  15.   -0.29979528

Lambda that maximizes along the TS mode:       0.00000015
Searching for lambda that minimizes along all other modes
In cycle   1: lambdaN =  -0.01539082   step =   0.01539082
In cycle   2: lambdaN =  -0.01542890   step =   0.00003809
In cycle   3: lambdaN =  -0.01542890   step =   0.00000000
Lambda that minimizes along all other modes:  -0.01542890
The final length of the internal step   ....       0.2053
Converting the step to cartesian space:
 Initial RMS(Int)=    0.0530136327
Transforming coordinates:
 Iter   0:  RMS(Cart)=    0.0515912938 RMS(Int)=    0.0530092002
 Iter   1:  RMS(Cart)=    0.0015152171 RMS(Int)=    0.0018094267
 Iter   2:  RMS(Cart)=    0.0000785899 RMS(Int)=    0.0000792182
 Iter   3:  RMS(Cart)=    0.0000023752 RMS(Int)=    0.0000026259
 Iter   4:  RMS(Cart)=    0.0000001561 RMS(Int)=    0.0000001547
 Iter   5:  RMS(Cart)=    0.0000000066 RMS(Int)=    0.0000000062
done
Storing new coordinates                 .... done

                                .--------------------.
          ----------------------|Geometry convergence|-------------------------
          Item                value                   Tolerance       Converged
          ---------------------------------------------------------------------
          RMS gradient        0.0213350577            0.0001000000      NO
          MAX gradient        0.0460882062            0.0003000000      NO
          RMS step            0.0530136327            0.0020000000      NO
          MAX step            0.0956976441            0.0040000000      NO
          ........................................................
          Max(Bonds)      0.0442      Max(Angles)    5.48
          Max(Dihed)        0.00      Max(Improp)    0.00
          ---------------------------------------------------------------------

The optimization has not yet converged - more geometry cycles are needed


    ---------------------------------------------------------------------------
                         Redundant Internal Coordinates
                            (Angstroem and degrees)

        Definition                    Value    dE/dq     Step     New-Value  comp.(TS mode)
    ----------------------------------------------------------------------------
     1. B(F   1,P   0)                1.5340 -0.007205  0.0128    1.5468   
     2. B(F   2,P   0)                1.5354 -0.046088  0.0442    1.5796   
     3. B(F   3,P   0)                1.5354 -0.046088  0.0442    1.5796   
     4. B(F   4,P   0)                1.5755 -0.021508  0.0129    1.5884   
     5. B(F   5,P   0)                1.5755 -0.021508  0.0129    1.5884   
     6. A(F   1,P   0,F   3)          105.20  0.010439   -2.41    102.79          0.30
     7. A(F   2,P   0,F   3)          149.60 -0.020878    4.83    154.43          0.60
     8. A(F   1,P   0,F   4)          104.81  0.011725   -2.74    102.06          0.28
     9. A(F   2,P   0,F   4)           86.16 -0.005559    1.29     87.45   
    10. A(F   3,P   0,F   4)           86.16 -0.005559    1.29     87.45   
    11. A(F   1,P   0,F   5)          104.81  0.011725   -2.74    102.06          0.28
    12. A(F   2,P   0,F   5)           86.16 -0.005559    1.29     87.45   
    13. A(F   3,P   0,F   5)           86.16 -0.005559    1.29     87.45   
    14. A(F   4,P   0,F   5)          150.39 -0.023451    5.48    155.87          0.55
    15. A(F   1,P   0,F   2)          105.20  0.010439   -2.41    102.79          0.30
    ----------------------------------------------------------------------------

         *************************************************************
         *                GEOMETRY OPTIMIZATION CYCLE   2            *
         *************************************************************
---------------------------------
CARTESIAN COORDINATES (ANGSTROEM)
---------------------------------
  P     -0.000000   -0.043628    0.000000
  F      0.000000    1.503182   -0.000000
  F      1.540558   -0.392818    0.000000
  F     -1.540558   -0.392818   -0.000000
  F      0.000000   -0.375159    1.553382
  F     -0.000000   -0.375159   -1.553382

----------------------------
CARTESIAN COORDINATES (A.U.)
----------------------------
  NO LB      ZA    FRAG     MASS         X           Y           Z
   0 P    15.0000    0    30.974   -0.000000   -0.082445    0.000000
   1 F     9.0000    0    18.998    0.000000    2.840602   -0.000000
   2 F     9.0000    0    18.998    2.911233   -0.742318    0.000000
   3 F     9.0000    0    18.998   -2.911233   -0.742318   -0.000000
   4 F     9.0000    0    18.998    0.000000   -0.708948    2.935467
   5 F     9.0000    0    18.998   -0.000000   -0.708948   -2.935467

--------------------------------
INTERNAL COORDINATES (ANGSTROEM)
--------------------------------
 P      0   0   0     0.000000000000     0.00000000     0.00000000
 F      1   0   0     1.546810055560     0.00000000     0.00000000
 F      1   2   0     1.579637014557   102.77112744     0.00000000
 F      1   2   3     1.579637014537   102.77112779   180.00000000
 F      1   2   3     1.588366586991   102.04761099    89.99999982
 F      1   2   3     1.588366587709   102.04761083   270.00000004

---------------------------
INTERNAL COORDINATES (A.U.)
---------------------------
 P      0   0   0     0.000000000000     0.00000000     0.00000000
 F      1   0   0     2.923047386204     0.00000000     0.00000000
 F      1   2   0     2.985081348519   102.77112744     0.00000000
 F      1   2   3     2.985081348480   102.77112779   180.00000000
 F      1   2   3     3.001577849684   102.04761099    89.99999982
 F      1   2   3     3.001577851041   102.04761083   270.00000004

------------------------------------------------------------------------------
                   ___                                                        
                  /   \      - P O W E R E D   B Y -                         
                 /     \                                                     
                 |  |  |   _    _      __       _____    __    __             
                 |  |  |  | |  | |    /  \     |  _  \  |  |  /  |          
                  \  \/   | |  | |   /    \    | | | |  |  | /  /          
                 / \  \   | |__| |  /  /\  \   | |_| |  |  |/  /          
                |  |  |   |  __  | /  /__\  \  |    /   |      \           
                |  |  |   | |  | | |   __   |  |    \   |  |\   \          
                \     /   | |  | | |  |  |  |  | |\  \  |  | \   \       
                 \___/    |_|  |_| |__|  |__|  |_| \__\ |__|  \__/        
                                                                              
                      - O R C A' S   B I G   F R I E N D -                    
                                      &                                       
                       - I N T E G R A L  F E E D E R -                       
                                                                              
 v1 FN, 2020, v2 2021                                                         
------------------------------------------------------------------------------


Reading SHARK input file PF5_ts_opt.SHARKINP.tmp ... ok
----------------------
SHARK INTEGRAL PACKAGE
----------------------

Number of atoms                             ...      6
Number of basis functions                   ...    192
Number of shells                            ...     68
Maximum angular momentum                    ...      3
Integral batch strategy                     ... SHARK/LIBINT Hybrid
RI-J (if used) integral strategy            ... SPLIT-RIJ (Revised 2003 algorithm where possible)
Printlevel                                  ...      1
Contraction scheme used                     ... SEGMENTED contraction
Coulomb Range Separation                    ... NOT USED
Exchange Range Separation                   ... NOT USED
Finite Nucleus Model                        ... NOT USED
Auxiliary Coulomb fitting basis             ... AVAILABLE
   # of basis functions in Aux-J            ...    296
   # of shells in Aux-J                     ...     92
   Maximum angular momentum in Aux-J        ...      4
Auxiliary J/K fitting basis                 ... NOT available
Auxiliary Correlation fitting basis         ... NOT available
Auxiliary 'external' fitting basis          ... NOT available
Integral threshold                          ...     2.500000e-11
Primitive cut-off                           ...     2.500000e-12
Primitive pair pre-selection threshold      ...     2.500000e-12

Calculating pre-screening integrals         ... done (  0.1 sec) Dimension = 68
Organizing shell pair data                  ... done (  0.0 sec)
Shell pair information
Total number of shell pairs                 ...      2346
Shell pairs after pre-screening             ...      2144
Total number of primitive shell pairs       ...      8274
Primitive shell pairs kept                  ...      5587
          la=0 lb=0:    384 shell pairs
          la=1 lb=0:    559 shell pairs
          la=1 lb=1:    208 shell pairs
          la=2 lb=0:    316 shell pairs
          la=2 lb=1:    236 shell pairs
          la=2 lb=2:     76 shell pairs
          la=3 lb=0:    156 shell pairs
          la=3 lb=1:    120 shell pairs
          la=3 lb=2:     68 shell pairs
          la=3 lb=3:     21 shell pairs

Calculating one electron integrals          ... done (  0.0 sec)
Calculating RI/J V-Matrix + Cholesky decomp.... done (  0.0 sec)
Calculating Nuclear repulsion               ... done (  0.0 sec) ENN=    402.923985374637 Eh

SHARK setup successfully completed in   0.2 seconds

Maximum memory used throughout the entire GTOINT-calculation: 51.1 MB

Diagonalization of the overlap matrix:
Smallest eigenvalue                        ... 2.807e-03
Time for diagonalization                   ...    0.005 sec
Threshold for overlap eigenvalues          ... 1.000e-08
Number of eigenvalues below threshold      ... 0
Time for construction of square roots      ...    0.003 sec
Total time needed                          ...    0.008 sec

-------------------
DFT GRID GENERATION
-------------------

General Integration Accuracy     IntAcc      ... 4.388
Radial Grid Type                 RadialGrid  ... OptM3 with GC (2021)
Angular Grid (max. ang.)         AngularGrid ... 4 (Lebedev-302)
Angular grid pruning method      GridPruning ... 4 (adaptive)
Weight generation scheme         WeightScheme... Becke
Basis function cutoff            BFCut       ... 1.0000e-11
Integration weight cutoff        WCut        ... 1.0000e-14
Angular grids for H and He will be reduced by one unit
Partially contracted basis set               ... off
Rotationally invariant grid construction     ... off

Total number of grid points                  ...    37928
Total number of batches                      ...      595
Average number of points per batch           ...       63
Average number of grid points per atom       ...     6321
Time for grid setup =    0.373 sec

--------------
SCF ITERATIONS
--------------
ITER       Energy         Delta-E        Max-DP      RMS-DP      [F,P]     Damp
               ***  Starting incremental Fock matrix formation  ***
  0   -840.3438304009   0.000000000000 0.00448774  0.00015185  0.0211992 0.7000
                      *** Initiating the SOSCF procedure ***
                      *** Re-Reading the Fockian *** 
                      *** Removing any level shift *** 
ITER      Energy       Delta-E        Grad      Rot      Max-DP    RMS-DP
  1   -840.34535710  -0.0015266969  0.002879  0.002879  0.014406  0.000460
               *** Restarting incremental Fock matrix formation ***
  2   -840.34896929  -0.0036121948  0.001527  0.003736  0.003920  0.000111
  3   -840.34884972   0.0001195711  0.003214  0.002708  0.003714  0.000069
  4   -840.34904369  -0.0001939733  0.000428  0.000756  0.000963  0.000030
  5   -840.34903779   0.0000059028  0.000685  0.000449  0.000655  0.000017
  6   -840.34904881  -0.0000110220  0.000164  0.000276  0.001241  0.000011
  7   -840.34904867   0.0000001448  0.000175  0.000145  0.000682  0.000006
  8   -840.34904926  -0.0000005875  0.000007  0.000006  0.000013  0.000000
  9   -840.34904925   0.0000000028  0.000004  0.000004  0.000006  0.000000
                  ***Gradient check signals convergence***
              ***Rediagonalizing the Fockian in SOSCF/NRSCF***

               *****************************************************
               *                     SUCCESS                       *
               *           SCF CONVERGED AFTER  10 CYCLES          *
               *****************************************************

Total Energy       :         -840.34904925 Eh          -22867.06017 eV
  Last Energy change         ...   -2.1350e-10  Tolerance :   1.0000e-08
  Last MAX-Density change    ...    5.6350e-06  Tolerance :   1.0000e-07
             **** THE GBW FILE WAS UPDATED (PF5_ts_opt.gbw) ****
             **** DENSITY PF5_ts_opt.scfp WAS UPDATED ****
             **** ENERGY FILE WAS UPDATED (PF5_ts_opt.en.tmp) ****
             **** THE GBW FILE WAS UPDATED (PF5_ts_opt.gbw) ****
             **** DENSITY PF5_ts_opt.scfp WAS UPDATED ****
Total SCF time: 0 days 0 hours 0 min 7 sec 

Maximum memory used throughout the entire SCF-calculation: 63.2 MB

-------------------------   --------------------
FINAL SINGLE POINT ENERGY      -840.349049254012
-------------------------   --------------------

------------------------------------------------------------------------------
                         ORCA SCF GRADIENT CALCULATION
------------------------------------------------------------------------------

Gradient of the Kohn-Sham DFT energy:
Kohn-Sham wavefunction type      ... RKS
Hartree-Fock exchange scaling    ...    0.000
Number of operators              ...    1
Number of atoms                  ...    6
Basis set dimensions             ...  192
Integral neglect threshold       ... 2.5e-11
Integral primitive cutoff        ... 2.5e-12
SHARK Integral package           ... ON

Nuc. rep. gradient       (SHARK) ... done (  0.0 sec)
HCore & Overlap gradient (SHARK) ... done (  0.1 sec)
RI-J gradient            (SHARK) ... done (  1.2 sec)
Exchange-correlation gradient    ... done

------------------
CARTESIAN GRADIENT
------------------

   1   P   :    0.000000001   -0.002146740    0.000000001
   2   F   :   -0.000000000   -0.000917024   -0.000000002
   3   F   :   -0.007421992    0.001501201   -0.000000000
   4   F   :    0.007421991    0.001501201   -0.000000001
   5   F   :    0.000000000    0.000030680   -0.003620467
   6   F   :   -0.000000000    0.000030682    0.003620469

Difference to translation invariance:
           :    0.0000000000   -0.0000000000   -0.0000000000

Difference to rotation invariance:
           :    0.0000000004   -0.0000000005   -0.0000000013

Norm of the cartesian gradient     ...    0.0120973555
RMS gradient                       ...    0.0028513740
MAX gradient                       ...    0.0074219919

-------
TIMINGS
-------

Total SCF gradient time            ...        3.475 sec

One electron gradient       ....       0.096 sec  (  2.8%)
RI-J Coulomb gradient       ....       1.189 sec  ( 34.2%)
XC gradient                 ....       2.079 sec  ( 59.8%)

Maximum memory used throughout the entire SCFGRAD-calculation: 62.3 MB
------------------------------------------------------------------------------
                         ORCA GEOMETRY RELAXATION STEP
------------------------------------------------------------------------------

Reading the OPT-File                    .... done
Getting information on internals        .... done
Copying old internal coords+grads       .... done
Making the new internal coordinates     .... (new redundants).... done
Validating the new internal coordinates .... (new redundants).... done
Calculating the B-matrix                .... done
Calculating the G,G- and P matrices     .... done
Transforming gradient to internals      .... done
Projecting the internal gradient        .... done
Number of atoms                         ....   6
Number of internal coordinates          ....  15
Current Energy                          ....  -840.349049254 Eh
Current gradient norm                   ....     0.012097355 Eh/bohr
Maximum allowed component of the step   ....  0.300
Current trust radius                    ....  0.300
Updating the Hessian (Bofill)          .... Diagonalizing the Hessian               .... done
Dimension of the hessian                ....  15
Lowest eigenvalues of the Hessian:
 -0.082906253  0.192874805  0.195705117  0.209253631  0.262827467
Hessian has   1 negative eigenvalues
Taking P-RFO step
Searching for lambda that maximizes along the lowest mode
TS mode is mode number   0 with eigenvalue  -0.08290625 and components:
   1.    0.00430598
   2.    0.01397430
   3.    0.01402399
   4.   -0.02053418
   5.   -0.02050070
   6.   -0.29721529
   7.    0.59433214
   8.    0.27953864
   9.    0.00264591
  10.    0.00255030
  11.    0.27955298
  12.    0.00258619
  13.    0.00249058
  14.   -0.55909161
  15.   -0.29711681

Lambda that maximizes along the TS mode:       0.00000835
Searching for lambda that minimizes along all other modes
In cycle   1: lambdaN =  -0.00031354   step =   0.00031354
In cycle   2: lambdaN =  -0.00031354   step =   0.00000000
Lambda that minimizes along all other modes:  -0.00031354
The final length of the internal step   ....       0.0282
Converting the step to cartesian space:
 Initial RMS(Int)=    0.0072692937
Transforming coordinates:
 Iter   0:  RMS(Cart)=    0.0074757184 RMS(Int)=    0.0072719033
 Iter   1:  RMS(Cart)=    0.0000210616 RMS(Int)=    0.0000167690
 Iter   2:  RMS(Cart)=    0.0000001145 RMS(Int)=    0.0000001127
 Iter   3:  RMS(Cart)=    0.0000000004 RMS(Int)=    0.0000000004
done
Storing new coordinates                 .... done

                                .--------------------.
          ----------------------|Geometry convergence|-------------------------
          Item                value                   Tolerance       Converged
          ---------------------------------------------------------------------
          Energy change      -0.0083132251            0.0000050000      NO
          RMS gradient        0.0030965524            0.0001000000      NO
          MAX gradient        0.0075702294            0.0003000000      NO
          RMS step            0.0072692937            0.0020000000      NO
          MAX step            0.0173614804            0.0040000000      NO
          ........................................................
          Max(Bonds)      0.0092      Max(Angles)    0.46
          Max(Dihed)        0.00      Max(Improp)    0.00
          ---------------------------------------------------------------------

The optimization has not yet converged - more geometry cycles are needed


    ---------------------------------------------------------------------------
                         Redundant Internal Coordinates
                            (Angstroem and degrees)

        Definition                    Value    dE/dq     Step     New-Value  comp.(TS mode)
    ----------------------------------------------------------------------------
     1. B(F   1,P   0)                1.5468 -0.000917  0.0009    1.5477   
     2. B(F   2,P   0)                1.5796 -0.007570  0.0092    1.5888   
     3. B(F   3,P   0)                1.5796 -0.007570  0.0092    1.5888   
     4. B(F   4,P   0)                1.5884 -0.003547  0.0033    1.5916   
     5. B(F   5,P   0)                1.5884 -0.003547  0.0033    1.5916   
     6. A(F   1,P   0,F   3)          102.77  0.000151   -0.23    102.54          0.30
     7. A(F   2,P   0,F   3)          154.46 -0.000302    0.46    154.92          0.59
     8. A(F   1,P   0,F   4)          102.05  0.000700    0.09    102.14          0.28
     9. A(F   2,P   0,F   4)           87.36 -0.000182    0.02     87.38   
    10. A(F   3,P   0,F   4)           87.36 -0.000182    0.02     87.38   
    11. A(F   1,P   0,F   5)          102.05  0.000700    0.09    102.14          0.28
    12. A(F   2,P   0,F   5)           87.36 -0.000182    0.02     87.38   
    13. A(F   3,P   0,F   5)           87.36 -0.000182    0.02     87.38   
    14. A(F   4,P   0,F   5)          155.90 -0.001400   -0.18    155.72          0.56
    15. A(F   1,P   0,F   2)          102.77  0.000151   -0.23    102.54          0.30
    ----------------------------------------------------------------------------

         *************************************************************
         *                GEOMETRY OPTIMIZATION CYCLE   3            *
         *************************************************************
---------------------------------
CARTESIAN COORDINATES (ANGSTROEM)
---------------------------------
  P      0.000001   -0.044097    0.000000
  F      0.000000    1.503569    0.000000
  F      1.550906   -0.389138   -0.000000
  F     -1.550905   -0.389138   -0.000000
  F     -0.000001   -0.378798    1.556030
  F     -0.000001   -0.378798   -1.556030

----------------------------
CARTESIAN COORDINATES (A.U.)
----------------------------
  NO LB      ZA    FRAG     MASS         X           Y           Z
   0 P    15.0000    0    30.974    0.000001   -0.083331    0.000000
   1 F     9.0000    0    18.998    0.000000    2.841334    0.000001
   2 F     9.0000    0    18.998    2.930788   -0.735364   -0.000000
   3 F     9.0000    0    18.998   -2.930786   -0.735365   -0.000000
   4 F     9.0000    0    18.998   -0.000001   -0.715824    2.940470
   5 F     9.0000    0    18.998   -0.000001   -0.715825   -2.940470

--------------------------------
INTERNAL COORDINATES (ANGSTROEM)
--------------------------------
 P      0   0   0     0.000000000000     0.00000000     0.00000000
 F      1   0   0     1.547666154608     0.00000000     0.00000000
 F      1   2   0     1.588823848650   102.54273705     0.00000000
 F      1   2   3     1.588824314243   102.54271335   180.00001785
 F      1   2   3     1.591619696303   102.13930900    90.00005814
 F      1   2   3     1.591619837185   102.13934701   269.99995965

---------------------------
INTERNAL COORDINATES (A.U.)
---------------------------
 P      0   0   0     0.000000000000     0.00000000     0.00000000
 F      1   0   0     2.924665178948     0.00000000     0.00000000
 F      1   2   0     3.002441948991   102.54273705     0.00000000
 F      1   2   3     3.002442828835   102.54271335   180.00001785
 F      1   2   3     3.007725335367   102.13930900    90.00005814
 F      1   2   3     3.007725601596   102.13934701   269.99995965

------------------------------------------------------------------------------
                   ___                                                        
                  /   \      - P O W E R E D   B Y -                         
                 /     \                                                     
                 |  |  |   _    _      __       _____    __    __             
                 |  |  |  | |  | |    /  \     |  _  \  |  |  /  |          
                  \  \/   | |  | |   /    \    | | | |  |  | /  /          
                 / \  \   | |__| |  /  /\  \   | |_| |  |  |/  /          
                |  |  |   |  __  | /  /__\  \  |    /   |      \           
                |  |  |   | |  | | |   __   |  |    \   |  |\   \          
                \     /   | |  | | |  |  |  |  | |\  \  |  | \   \       
                 \___/    |_|  |_| |__|  |__|  |_| \__\ |__|  \__/        
                                                                              
                      - O R C A' S   B I G   F R I E N D -                    
                                      &                                       
                       - I N T E G R A L  F E E D E R -                       
                                                                              
 v1 FN, 2020, v2 2021                                                         
------------------------------------------------------------------------------


Reading SHARK input file PF5_ts_opt.SHARKINP.tmp ... ok
----------------------
SHARK INTEGRAL PACKAGE
----------------------

Number of atoms                             ...      6
Number of basis functions                   ...    192
Number of shells                            ...     68
Maximum angular momentum                    ...      3
[...]
  33   0.0000       0.105251         2.8640 
  34   0.0000       0.155500         4.2314 
  35   0.0000       0.171247         4.6599 
  36   0.0000       0.205359         5.5881 
  37   0.0000       0.205697         5.5973 
  38   0.0000       0.335111         9.1188 
  39   0.0000       0.362083         9.8528 
  40   0.0000       0.362580         9.8663 
  41   0.0000       0.383744        10.4422 
  42   0.0000       0.385872        10.5001 
  43   0.0000       0.437098        11.8940 
  44   0.0000       0.460317        12.5259 
  45   0.0000       0.460898        12.5417 
  46   0.0000       0.485305        13.2058 
  47   0.0000       0.496621        13.5137 
  48   0.0000       0.496763        13.5176 
  49   0.0000       0.569534        15.4978 
  50   0.0000       0.594954        16.1895 
  51   0.0000       0.595311        16.1992 
  52   0.0000       0.669671        18.2227 
  53   0.0000       0.712631        19.3917 
  54   0.0000       0.715805        19.4781 
  55   0.0000       0.727165        19.7872 
  56   0.0000       0.727632        19.7999 
  57   0.0000       0.742534        20.2054 
  58   0.0000       0.770622        20.9697 
  59   0.0000       0.894776        24.3481 
  60   0.0000       0.894885        24.3510 
  61   0.0000       0.923694        25.1350 
  62   0.0000       0.976189        26.5634 
  63   0.0000       0.979567        26.6554 
  64   0.0000       1.136157        30.9164 
  65   0.0000       1.137008        30.9396 
  66   0.0000       1.140590        31.0370 
  67   0.0000       1.154139        31.4057 
  68   0.0000       1.244817        33.8732 
  69   0.0000       1.245531        33.8926 
  70   0.0000       1.308294        35.6005 
  71   0.0000       1.396231        37.9934 
  72   0.0000       1.396944        38.0128 
  73   0.0000       1.426683        38.8220 
  74   0.0000       1.550477        42.1906 
  75   0.0000       1.762042        47.9476 
  76   0.0000       1.799572        48.9688 
  77   0.0000       1.827689        49.7339 
  78   0.0000       1.828454        49.7548 
  79   0.0000       1.853997        50.4498 
  80   0.0000       1.869428        50.8697 
  81   0.0000       1.869998        50.8852 
  82   0.0000       1.899646        51.6920 
  83   0.0000       2.089444        56.8567 
  84   0.0000       2.089585        56.8605 
  85   0.0000       2.090677        56.8902 
  86   0.0000       2.091175        56.9038 
  87   0.0000       2.171931        59.1012 
  88   0.0000       2.201180        59.8971 
  89   0.0000       2.342727        63.7489 
  90   0.0000       2.369814        64.4859 
  91   0.0000       2.370475        64.5039 
  92   0.0000       2.427064        66.0438 
  93   0.0000       2.428136        66.0729 
  94   0.0000       2.464584        67.0648 
  95   0.0000       2.481722        67.5311 
  96   0.0000       2.529140        68.8214 
  97   0.0000       2.539570        69.1052 
  98   0.0000       2.540047        69.1182 
  99   0.0000       2.588318        70.4317 
 100   0.0000       2.605247        70.8924 
 101   0.0000       2.643840        71.9425 
 102   0.0000       2.644102        71.9497 
 103   0.0000       3.086446        83.9865 
 104   0.0000       3.087609        84.0181 
 105   0.0000       3.088743        84.0490 
 106   0.0000       3.201823        87.1260 
 107   0.0000       3.204090        87.1877 
 108   0.0000       3.204258        87.1923 
 109   0.0000       3.292023        89.5805 
 110   0.0000       3.367399        91.6316 
 111   0.0000       3.368061        91.6496 
 112   0.0000       3.400879        92.5426 
 113   0.0000       3.406689        92.7007 
 114   0.0000       3.579260        97.3966 
 115   0.0000       3.641410        99.0878 
 116   0.0000       3.699760       100.6756 
 117   0.0000       3.700032       100.6830 
 118   0.0000       3.878824       105.5482 
 119   0.0000       4.048206       110.1573 
 120   0.0000       4.106541       111.7447 
 121   0.0000       4.383704       119.2866 
 122   0.0000       4.388191       119.4088 
 123   0.0000       6.368267       173.2894 
 124   0.0000       6.368354       173.2917 
 125   0.0000       6.412433       174.4912 
 126   0.0000       6.616465       180.0432 
 127   0.0000       6.624579       180.2640 
 128   0.0000       6.628729       180.3769 
 129   0.0000       6.642011       180.7383 
 130   0.0000       6.642045       180.7392 
 131   0.0000       6.644999       180.8196 
 132   0.0000       6.650379       180.9660 
 133   0.0000       6.650386       180.9662 
 134   0.0000       6.671605       181.5436 
 135   0.0000       6.672018       181.5548 
 136   0.0000       6.677884       181.7145 
 137   0.0000       6.678099       181.7203 
 138   0.0000       6.678128       181.7211 
 139   0.0000       6.680427       181.7837 
 140   0.0000       6.680592       181.7881 
 141   0.0000       6.680865       181.7956 
 142   0.0000       6.680924       181.7972 
 143   0.0000       6.684437       181.8928 
 144   0.0000       6.700772       182.3373 
 145   0.0000       6.702339       182.3799 
 146   0.0000       6.719754       182.8538 
 147   0.0000       6.720152       182.8646 
 148   0.0000       6.720189       182.8656 
 149   0.0000       6.730656       183.1505 
 150   0.0000       6.817900       185.5245 
 151   0.0000       6.859842       186.6658 
 152   0.0000       6.863565       186.7671 
 153   0.0000       6.899142       187.7352 
 154   0.0000       6.899568       187.7468 
 155   0.0000       6.959647       189.3816 
 156   0.0000       6.980379       189.9458 
 157   0.0000       6.980535       189.9500 
 158   0.0000       7.732879       210.4223 
 159   0.0000       7.782406       211.7700 
 160   0.0000       7.782900       211.7835 
 161   0.0000       8.012900       218.0421 
 162   0.0000       8.056198       219.2203 
 163   0.0000       8.056367       219.2249 
 164   0.0000       8.063196       219.4107 
 165   0.0000       8.084188       219.9820 
 166   0.0000       8.163131       222.1301 
 167   0.0000       8.163263       222.1337 
 168   0.0000       8.179085       222.5642 
 169   0.0000       8.209010       223.3785 
 170   0.0000       8.235234       224.0921 
 171   0.0000       8.283287       225.3997 
 172   0.0000       8.374602       227.8845 
 173   0.0000       8.376807       227.9445 
 174   0.0000       8.389153       228.2805 
 175   0.0000       8.470408       230.4915 
 176   0.0000       8.471238       230.5141 
 177   0.0000       8.493275       231.1138 
 178   0.0000       8.506440       231.4720 
 179   0.0000       8.584739       233.6026 
 180   0.0000       8.601752       234.0656 
 181   0.0000       8.613478       234.3847 
 182   0.0000       8.614096       234.4015 
 183   0.0000       8.731854       237.6058 
 184   0.0000       8.964266       243.9301 
 185   0.0000       8.965934       243.9755 
 186   0.0000      15.518771       422.2872 
 187   0.0000      56.250572      1530.6559 
 188   0.0000      56.262296      1530.9749 
 189   0.0000      56.518967      1537.9593 
 190   0.0000      56.521300      1538.0228 
 191   0.0000      56.621424      1540.7473 

                    ********************************
                    * MULLIKEN POPULATION ANALYSIS *
                    ********************************

-----------------------
MULLIKEN ATOMIC CHARGES
-----------------------
   0 P :    0.949324
   1 F :   -0.156248
   2 F :   -0.198014
   3 F :   -0.198014
   4 F :   -0.198524
   5 F :   -0.198524
Sum of atomic charges:   -0.0000000

--------------------------------
MULLIKEN REDUCED ORBITAL CHARGES
--------------------------------
  0 P s       :     4.954516  s :     4.954516
      pz      :     2.620858  p :     7.840360
      px      :     2.620587
      py      :     2.598915
      dz2     :     0.240125  d :     1.011378
      dxz     :     0.194980
      dyz     :     0.187574
      dx2y2   :     0.201116
      dxy     :     0.187583
      f0      :     0.055630  f :     0.244422
      f+1     :     0.042731
      f-1     :     0.035904
      f+2     :     0.030083
      f-2     :     0.005283
      f+3     :     0.043043
      f-3     :     0.031747
  1 F s       :     3.896291  s :     3.896291
      pz      :     1.856690  p :     5.245220
      px      :     1.856424
      py      :     1.532106
      dz2     :     0.001758  d :     0.014245
      dxz     :     0.000062
      dyz     :     0.003716
      dx2y2   :     0.004989
      dxy     :     0.003719
      f0      :     0.000048  f :     0.000492
      f+1     :     0.000008
      f-1     :     0.000089
      f+2     :     0.000080
      f-2     :     0.000004
      f+3     :     0.000119
      f-3     :     0.000144
  2 F s       :     3.905844  s :     3.905844
      pz      :     1.899223  p :     5.278833
      px      :     1.547903
      py      :     1.831708
      dz2     :     0.001938  d :     0.012901
      dxz     :     0.002880
      dyz     :     0.000254
      dx2y2   :     0.004326
      dxy     :     0.003504
      f0      :     0.000043  f :     0.000436
      f+1     :     0.000097
      f-1     :     0.000013
      f+2     :     0.000054
      f-2     :     0.000014
      f+3     :     0.000110
      f-3     :     0.000104
  3 F s       :     3.905844  s :     3.905844
      pz      :     1.899223  p :     5.278833
      px      :     1.547903
      py      :     1.831708
      dz2     :     0.001938  d :     0.012901
      dxz     :     0.002880
      dyz     :     0.000254
      dx2y2   :     0.004326
      dxy     :     0.003504
      f0      :     0.000043  f :     0.000436
      f+1     :     0.000097
      f-1     :     0.000013
      f+2     :     0.000054
      f-2     :     0.000014
      f+3     :     0.000110
      f-3     :     0.000104
  4 F s       :     3.905927  s :     3.905927
      pz      :     1.547893  p :     5.279272
      px      :     1.899203
      py      :     1.832177
      dz2     :     0.005832  d :     0.012890
      dxz     :     0.002880
      dyz     :     0.003494
      dx2y2   :     0.000432
      dxy     :     0.000252
      f0      :     0.000184  f :     0.000435
      f+1     :     0.000094
      f-1     :     0.000115
      f+2     :     0.000023
      f-2     :     0.000014
      f+3     :     0.000003
      f-3     :     0.000002
  5 F s       :     3.905927  s :     3.905927
      pz      :     1.547893  p :     5.279272
      px      :     1.899203
      py      :     1.832177
      dz2     :     0.005832  d :     0.012890
      dxz     :     0.002880
      dyz     :     0.003494
      dx2y2   :     0.000432
      dxy     :     0.000252
      f0      :     0.000184  f :     0.000435
      f+1     :     0.000094
      f-1     :     0.000115
      f+2     :     0.000023
      f-2     :     0.000014
      f+3     :     0.000003
      f-3     :     0.000002


                     *******************************
                     * LOEWDIN POPULATION ANALYSIS *
                     *******************************

----------------------
LOEWDIN ATOMIC CHARGES
----------------------
   0 P :   -0.059803
   1 F :    0.063155
   2 F :   -0.000611
   3 F :   -0.000611
   4 F :   -0.001065
   5 F :   -0.001065

-------------------------------
LOEWDIN REDUCED ORBITAL CHARGES
-------------------------------
  0 P s       :     4.637887  s :     4.637887
      pz      :     2.672599  p :     7.977478
      px      :     2.672437
      py      :     2.632442
      dz2     :     0.500938  d :     1.749533
      dxz     :     0.264860
      dyz     :     0.282996
      dx2y2   :     0.417326
      dxy     :     0.283412
      f0      :     0.164769  f :     0.694904
      f+1     :     0.123262
      f-1     :     0.103898
      f+2     :     0.076642
      f-2     :     0.011154
      f+3     :     0.118215
      f-3     :     0.096963
  1 F s       :     3.673286  s :     3.673286
      pz      :     1.801579  p :     5.240649
      px      :     1.801294
      py      :     1.637776
      dz2     :     0.003700  d :     0.022116
      dxz     :     0.000076
      dyz     :     0.003835
      dx2y2   :     0.010672
      dxy     :     0.003832
      f0      :     0.000058  f :     0.000794
      f+1     :     0.000011
      f-1     :     0.000182
      f+2     :     0.000098
      f-2     :     0.000008
      f+3     :     0.000146
      f-3     :     0.000292
  2 F s       :     3.697421  s :     3.697421
      pz      :     1.854150  p :     5.280730
      px      :     1.636225
      py      :     1.790354
      dz2     :     0.003831  d :     0.021684
      dxz     :     0.003966
      dyz     :     0.000297
      dx2y2   :     0.009217
      dxy     :     0.004374
      f0      :     0.000065  f :     0.000776
      f+1     :     0.000176
      f-1     :     0.000018
      f+2     :     0.000090
      f-2     :     0.000024
      f+3     :     0.000234
      f-3     :     0.000170
  3 F s       :     3.697421  s :     3.697421
      pz      :     1.854150  p :     5.280730
      px      :     1.636225
      py      :     1.790354
      dz2     :     0.003831  d :     0.021684
      dxz     :     0.003966
      dyz     :     0.000297
      dx2y2   :     0.009217
      dxy     :     0.004374
      f0      :     0.000065  f :     0.000776
      f+1     :     0.000176
      f-1     :     0.000018
      f+2     :     0.000090
      f-2     :     0.000024
      f+3     :     0.000234
      f-3     :     0.000170
  4 F s       :     3.697536  s :     3.697536
      pz      :     1.636167  p :     5.281086
      px      :     1.854159
      py      :     1.790760
      dz2     :     0.012463  d :     0.021669
      dxz     :     0.003963
      dyz     :     0.004355
      dx2y2   :     0.000594
      dxy     :     0.000294
      f0      :     0.000374  f :     0.000775
      f+1     :     0.000150
      f-1     :     0.000184
      f+2     :     0.000036
      f-2     :     0.000023
      f+3     :     0.000005
      f-3     :     0.000003
  5 F s       :     3.697536  s :     3.697536
      pz      :     1.636167  p :     5.281086
      px      :     1.854159
      py      :     1.790760
      dz2     :     0.012463  d :     0.021669
      dxz     :     0.003963
      dyz     :     0.004355
      dx2y2   :     0.000594
      dxy     :     0.000294
      f0      :     0.000374  f :     0.000775
      f+1     :     0.000150
      f-1     :     0.000184
      f+2     :     0.000036
      f-2     :     0.000023
      f+3     :     0.000005
      f-3     :     0.000003


                      *****************************
                      * MAYER POPULATION ANALYSIS *
                      *****************************

  NA   - Mulliken gross atomic population
  ZA   - Total nuclear charge
  QA   - Mulliken gross atomic charge
  VA   - Mayer's total valence
  BVA  - Mayer's bonded valence
  FA   - Mayer's free valence

  ATOM       NA         ZA         QA         VA         BVA        FA
  0 P     14.0507    15.0000     0.9493     5.9702     5.9702    -0.0000
  1 F      9.1562     9.0000    -0.1562     1.2723     1.2723    -0.0000
  2 F      9.1980     9.0000    -0.1980     1.2139     1.2139     0.0000
  3 F      9.1980     9.0000    -0.1980     1.2139     1.2139     0.0000
  4 F      9.1985     9.0000    -0.1985     1.2136     1.2136     0.0000
  5 F      9.1985     9.0000    -0.1985     1.2136     1.2136    -0.0000

  Mayer bond orders larger than 0.100000
B(  0-P ,  1-F ) :   1.2333 B(  0-P ,  2-F ) :   1.1843 B(  0-P ,  3-F ) :   1.1843 
B(  0-P ,  4-F ) :   1.1841 B(  0-P ,  5-F ) :   1.1841 

-------
TIMINGS
-------

Total SCF time: 0 days 0 hours 0 min 5 sec 

Total time                  ....       5.384 sec
Sum of individual times     ....       5.083 sec  ( 94.4%)

Fock matrix formation       ....       4.614 sec  ( 85.7%)
  Split-RI-J                ....       1.266 sec  ( 27.4% of F)
  XC integration            ....       3.325 sec  ( 72.1% of F)
    Basis function eval.    ....       1.156 sec  ( 34.8% of XC)
    Density eval.           ....       0.913 sec  ( 27.5% of XC)
    XC-Functional eval.     ....       0.161 sec  (  4.8% of XC)
    XC-Potential eval.      ....       0.807 sec  ( 24.3% of XC)
Diagonalization             ....       0.007 sec  (  0.1%)
Density matrix formation    ....       0.007 sec  (  0.1%)
Population analysis         ....       0.028 sec  (  0.5%)
Initial guess               ....       0.006 sec  (  0.1%)
Orbital Transformation      ....       0.000 sec  (  0.0%)
Orbital Orthonormalization  ....       0.003 sec  (  0.1%)
DIIS solution               ....       0.002 sec  (  0.0%)
SOSCF solution              ....       0.050 sec  (  0.9%)
Grid generation             ....       0.369 sec  (  6.9%)

Maximum memory used throughout the entire SCF-calculation: 62.7 MB

-------------------------   --------------------
FINAL SINGLE POINT ENERGY      -840.349227945937
-------------------------   --------------------

                                *** OPTIMIZATION RUN DONE ***

                            ***************************************
                            *     ORCA property calculations      *
                            ***************************************

                                    ---------------------
                                    Active property flags
                                    ---------------------
   (+) Dipole Moment


------------------------------------------------------------------------------
                       ORCA ELECTRIC PROPERTIES CALCULATION
------------------------------------------------------------------------------

Dipole Moment Calculation                       ... on
Quadrupole Moment Calculation                   ... off
Polarizability Calculation                      ... off
GBWName                                         ... PF5_ts_opt.gbw
Electron density                                ... PF5_ts_opt.scfp
The origin for moment calculation is the CENTER OF MASS  = ( 0.000000, -0.029672  0.000000)

-------------
DIPOLE MOMENT
-------------
                                X             Y             Z
Electronic contribution:      0.00000       0.02859       0.00000
Nuclear contribution   :      0.00000      -0.01744       0.00000
                        -----------------------------------------
Total Dipole Moment    :      0.00000       0.01116       0.00000
                        -----------------------------------------
Magnitude (a.u.)       :      0.01116
Magnitude (Debye)      :      0.02836



--------------------
Rotational spectrum 
--------------------
 
Rotational constants in cm-1:     0.115511     0.115422     0.091795 
Rotational constants in MHz :  3462.935944  3460.259402  2751.931295 

 Dipole components along the rotational axes: 
x,y,z [a.u.] :     0.000000    -0.000001    -0.011158 
x,y,z [Debye]:     0.000001    -0.000002    -0.028361 

 

Timings for individual modules:

Sum of individual times         ...       54.119 sec (=   0.902 min)
GTO integral calculation        ...        1.452 sec (=   0.024 min)   2.7 %
SCF iterations                  ...       37.087 sec (=   0.618 min)  68.5 %
SCF Gradient evaluation         ...       15.290 sec (=   0.255 min)  28.3 %
Geometry relaxation             ...        0.290 sec (=   0.005 min)   0.5 %
                             ****ORCA TERMINATED NORMALLY****
TOTAL RUN TIME: 0 days 0 hours 0 minutes 54 seconds 591 msec
