
                                 *****************
                                 * O   R   C   A *
                                 *****************

                                            #,                                       
                                            ###                                      
                                            ####                                     
                                            #####                                    
                                            ######                                   
                                           ########,                                 
                                     ,,################,,,,,                         
                               ,,#################################,,                 
                          ,,##########################################,,             
                       ,#########################################, ''#####,          
                    ,#############################################,,   '####,        
                  ,##################################################,,,,####,       
                ,###########''''           ''''###############################       
              ,#####''   ,,,,##########,,,,          '''####'''          '####       
            ,##' ,,,,###########################,,,                        '##       
           ' ,,###''''                  '''############,,,                           
         ,,##''                                '''############,,,,        ,,,,,,###''
      ,#''                                            '''#######################'''  
     '                                                          ''''####''''         
             ,#######,   #######,   ,#######,      ##                                
            ,#'     '#,  ##    ##  ,#'     '#,    #''#        ######   ,####,        
            ##       ##  ##   ,#'  ##            #'  '#       #        #'  '#        
            ##       ##  #######   ##           ,######,      #####,   #    #        
            '#,     ,#'  ##    ##  '#,     ,#' ,#      #,         ##   #,  ,#        
             '#######'   ##     ##  '#######'  #'      '#     #####' # '####'        



                  #######################################################
                  #                        -***-                        #
                  #          Department of theory and spectroscopy      #
                  #    Directorship and core code : Frank Neese         #
                  #        Max Planck Institute fuer Kohlenforschung    #
                  #                Kaiser Wilhelm Platz 1               #
                  #                 D-45470 Muelheim/Ruhr               #
                  #                      Germany                        #
                  #                                                     #
                  #                  All rights reserved                #
                  #                        -***-                        #
                  #######################################################



                         Program Version 5.0.4 -  RELEASE  -

 With contributions from (in alphabetic order):
   Daniel Aravena         : Magnetic Suceptibility
   Michael Atanasov       : Ab Initio Ligand Field Theory (pilot matlab implementation)
   Alexander A. Auer      : GIAO ZORA, VPT2 properties, NMR spectrum
   Ute Becker             : Parallelization
   Giovanni Bistoni       : ED, misc. LED, open-shell LED, HFLD
   Martin Brehm           : Molecular dynamics
   Dmytro Bykov           : SCF Hessian
   Vijay G. Chilkuri      : MRCI spin determinant printing, contributions to CSF-ICE
   Dipayan Datta          : RHF DLPNO-CCSD density
   Achintya Kumar Dutta   : EOM-CC, STEOM-CC
   Dmitry Ganyushin       : Spin-Orbit,Spin-Spin,Magnetic field MRCI
   Miquel Garcia          : C-PCM and meta-GGA Hessian, CC/C-PCM, Gaussian charge scheme
   Yang Guo               : DLPNO-NEVPT2, F12-NEVPT2, CIM, IAO-localization
   Andreas Hansen         : Spin unrestricted coupled pair/coupled cluster methods
   Benjamin Helmich-Paris : MC-RPA, TRAH-SCF, COSX integrals
   Lee Huntington         : MR-EOM, pCC
   Robert Izsak           : Overlap fitted RIJCOSX, COSX-SCS-MP3, EOM
   Marcus Kettner         : VPT2
   Christian Kollmar      : KDIIS, OOCD, Brueckner-CCSD(T), CCSD density, CASPT2, CASPT2-K
   Simone Kossmann        : Meta GGA functionals, TD-DFT gradient, OOMP2, MP2 Hessian
   Martin Krupicka        : Initial AUTO-CI
   Lucas Lang             : DCDCAS
   Marvin Lechner         : AUTO-CI (C++ implementation), FIC-MRCC
   Dagmar Lenk            : GEPOL surface, SMD
   Dimitrios Liakos       : Extrapolation schemes; Compound Job, initial MDCI parallelization
   Dimitrios Manganas     : Further ROCIS development; embedding schemes
   Dimitrios Pantazis     : SARC Basis sets
   Anastasios Papadopoulos: AUTO-CI, single reference methods and gradients
   Taras Petrenko         : DFT Hessian,TD-DFT gradient, ASA, ECA, R-Raman, ABS, FL, XAS/XES, NRVS
   Peter Pinski           : DLPNO-MP2, DLPNO-MP2 Gradient
   Christoph Reimann      : Effective Core Potentials
   Marius Retegan         : Local ZFS, SOC
   Christoph Riplinger    : Optimizer, TS searches, QM/MM, DLPNO-CCSD(T), (RO)-DLPNO pert. Triples
   Tobias Risthaus        : Range-separated hybrids, TD-DFT gradient, RPA, STAB
   Michael Roemelt        : Original ROCIS implementation
   Masaaki Saitow         : Open-shell DLPNO-CCSD energy and density
   Barbara Sandhoefer     : DKH picture change effects
   Avijit Sen             : IP-ROCIS
   Kantharuban Sivalingam : CASSCF convergence, NEVPT2, FIC-MRCI
   Bernardo de Souza      : ESD, SOC TD-DFT
   Georgi Stoychev        : AutoAux, RI-MP2 NMR, DLPNO-MP2 response
   Willem Van den Heuvel  : Paramagnetic NMR
   Boris Wezisla          : Elementary symmetry handling
   Frank Wennmohs         : Technical directorship


 We gratefully acknowledge several colleagues who have allowed us to
 interface, adapt or use parts of their codes:
   Stefan Grimme, W. Hujo, H. Kruse, P. Pracht,  : VdW corrections, initial TS optimization,
                  C. Bannwarth, S. Ehlert          DFT functionals, gCP, sTDA/sTD-DF
   Ed Valeev, F. Pavosevic, A. Kumar             : LibInt (2-el integral package), F12 methods
   Garnet Chan, S. Sharma, J. Yang, R. Olivares  : DMRG
   Ulf Ekstrom                                   : XCFun DFT Library
   Mihaly Kallay                                 : mrcc  (arbitrary order and MRCC methods)
   Jiri Pittner, Ondrej Demel                    : Mk-CCSD
   Frank Weinhold                                : gennbo (NPA and NBO analysis)
   Christopher J. Cramer and Donald G. Truhlar   : smd solvation model
   Lars Goerigk                                  : TD-DFT with DH, B97 family of functionals
   V. Asgeirsson, H. Jonsson                     : NEB implementation
   FAccTs GmbH                                   : IRC, NEB, NEB-TS, DLPNO-Multilevel, CI-OPT
                                                   MM, QMMM, 2- and 3-layer-ONIOM, Crystal-QMMM,
                                                   LR-CPCM, SF, NACMEs, symmetry and pop. for TD-DFT,
                                                   nearIR, NL-DFT gradient (VV10), updates on ESD,
                                                   ML-optimized integration grids
   S Lehtola, MJT Oliveira, MAL Marques          : LibXC Library
   Liviu Ungur et al                             : ANISO software


 Your calculation uses the libint2 library for the computation of 2-el integrals
 For citations please refer to: http://libint.valeyev.net

 Your ORCA version has been built with support for libXC version: 5.1.0
 For citations please refer to: https://tddft.org/programs/libxc/

 This ORCA versions uses:
   CBLAS   interface :  Fast vector & matrix operations
   LAPACKE interface :  Fast linear algebra routines
   Shared memory     :  Shared parallel matrices


================================================================================

cite the ECPs for Sb [Def2-ECP] as follows:
Ce-Yb(ecp-28): M. Dolg, H. Stoll, H.Preuss, J. Chem. Phys., 1989, 90, 1730-1734.
Y-Cd(ecp-28), Hf-Hg(ecp-46): D. Andrae,U. Haeussermann, M. Dolg, H. Stoll, H. Preuss, Theor. Chim. Acta, 1990, 77, 123-141.
In-Sb(ecp-28), Tl-Bi(ecp-46): B. Metz, H. Stoll, M. Dolg, J. Chem. Phys., 2000, 113, 2563-2569.
Te-Xe(ecp-28), Po-Rn(ecp-46): K. A. Peterson, D. Figgen, E. Goll, H. Stoll, M. Dolg, J. Chem. Phys., 2003, 119, 11113-11123.
Rb(ecp-28), Cs(ecp-46): T. Leininger, A. Nicklass, W. Kuechle, H. Stoll, M. Dolg, A. Bergner, Chem. Phys. Lett., 1996, 255, 274-280.
Sr(ecp-28), Ba(ecp-46): M. Kaupp, P. V. Schleyer, H. Stoll and H. Preuss, J. Chem. Phys., 1991, 94, 1360-1366.
La(ecp-46): M. Dolg, H. Stoll, A. Savin, H. Preuss, Theor. Chim. Acta, 1989, 75, 173-194.
Lu(ecp-28): X. Cao, M. Dolg, J. Chem. Phys., 2001, 115, 7348-7355.

ECP parameters for Sb [Def2-ECP] have been obtained from:
TURBOMOLE (7.0.2)

----- Orbital basis set information -----
Your calculation utilizes the basis: def2-TZVP
   F. Weigend and R. Ahlrichs, Phys. Chem. Chem. Phys. 7, 3297 (2005).

----- AuxJ basis set information -----
Your calculation utilizes the auxiliary basis: def2/J
   F. Weigend, Phys. Chem. Chem. Phys. 8, 1057 (2006).

================================================================================
                                        WARNINGS
                       Please study these warnings very carefully!
================================================================================


INFO   : the flag for use of the SHARK integral package has been found!

================================================================================
                                       INPUT FILE
================================================================================
NAME = SbCl5_ts_sp.inp
|  1> ! PBE def2-TZVP
|  2> 
|  3> * xyz 0 1
|  4>   Sb     0.000000   -0.072745    0.000000
|  5>   Cl    -0.000000    2.239955   -0.000000
|  6>   Cl     2.311771   -0.569753    0.000000
|  7>   Cl    -2.311771   -0.569753    0.000000
|  8>   Cl     0.000000   -0.569753    2.311771
|  9>   Cl     0.000000   -0.569753   -2.311771
| 10> *
| 11> 
| 12>                          ****END OF INPUT****
================================================================================

                       ****************************
                       * Single Point Calculation *
                       ****************************

---------------------------------
CARTESIAN COORDINATES (ANGSTROEM)
---------------------------------
  Sb     0.000000   -0.072745    0.000000
  Cl    -0.000000    2.239955   -0.000000
  Cl     2.311771   -0.569753    0.000000
  Cl    -2.311771   -0.569753    0.000000
  Cl     0.000000   -0.569753    2.311771
  Cl     0.000000   -0.569753   -2.311771

----------------------------
CARTESIAN COORDINATES (A.U.)
----------------------------
  NO LB      ZA    FRAG     MASS         X           Y           Z
   0 Sb   23.0000*   0   121.750    0.000000   -0.137468    0.000000
   1 Cl   17.0000    0    35.453   -0.000000    4.232902   -0.000000
   2 Cl   17.0000    0    35.453    4.368614   -1.076677    0.000000
   3 Cl   17.0000    0    35.453   -4.368614   -1.076677    0.000000
   4 Cl   17.0000    0    35.453    0.000000   -1.076677    4.368614
   5 Cl   17.0000    0    35.453    0.000000   -1.076677   -4.368614
* core charge reduced due to ECP

--------------------------------
INTERNAL COORDINATES (ANGSTROEM)
--------------------------------
 Sb     0   0   0     0.000000000000     0.00000000     0.00000000
 Cl     1   0   0     2.312700000000     0.00000000     0.00000000
 Cl     1   2   0     2.364593434082   102.13334088     0.00000000
 Cl     1   2   3     2.364593434082   102.13334088   180.00000000
 Cl     1   2   3     2.364593434082   102.13334088    90.00000000
 Cl     1   2   3     2.364593434082   102.13334088   270.00000000

---------------------------
INTERNAL COORDINATES (A.U.)
---------------------------
 Sb     0   0   0     0.000000000000     0.00000000     0.00000000
 Cl     1   0   0     4.370369629920     0.00000000     0.00000000
 Cl     1   2   0     4.468434008484   102.13334088     0.00000000
 Cl     1   2   3     4.468434008484   102.13334088   180.00000000
 Cl     1   2   3     4.468434008484   102.13334088    90.00000000
 Cl     1   2   3     4.468434008484   102.13334088   270.00000000

---------------------
BASIS SET INFORMATION
---------------------
There are 2 groups of distinct atoms

 Group   1 Type Sb  : 10s9p8d2f contracted to 6s5p3d2f pattern {421111/33111/611/11}
 Group   2 Type Cl  : 14s9p3d1f contracted to 5s5p2d1f pattern {73211/51111/21/1}

Atom   0Sb   basis set group =>   1
Atom   1Cl   basis set group =>   2
Atom   2Cl   basis set group =>   2
Atom   3Cl   basis set group =>   2
Atom   4Cl   basis set group =>   2
Atom   5Cl   basis set group =>   2
---------------------------------
AUXILIARY/J BASIS SET INFORMATION
---------------------------------
There are 2 groups of distinct atoms

 Group   1 Type Sb  : 11s5p5d3f1g contracted to 8s4p3d2f1g pattern {41111111/2111/311/21/1}
 Group   2 Type Cl  : 14s5p5d2f1g contracted to 8s4p3d1f1g pattern {71111111/2111/311/2/1}

Atom   0Sb   basis set group =>   1
Atom   1Cl   basis set group =>   2
Atom   2Cl   basis set group =>   2
Atom   3Cl   basis set group =>   2
Atom   4Cl   basis set group =>   2
Atom   5Cl   basis set group =>   2
-------------------------
ECP PARAMETER INFORMATION
-------------------------

 Group 1, Type Sb ECP Def2-ECP (replacing 28 core electrons, lmax=3)

Atom   0Sb   ECP group =>   1

------------------------------------------------------------------------------
                           ORCA GTO INTEGRAL CALCULATION
                           -- RI-GTO INTEGRALS CHOSEN --
------------------------------------------------------------------------------
------------------------------------------------------------------------------
                   ___                                                        
                  /   \      - P O W E R E D   B Y -                         
                 /     \                                                     
                 |  |  |   _    _      __       _____    __    __             
                 |  |  |  | |  | |    /  \     |  _  \  |  |  /  |          
                  \  \/   | |  | |   /    \    | | | |  |  | /  /          
                 / \  \   | |__| |  /  /\  \   | |_| |  |  |/  /          
                |  |  |   |  __  | /  /__\  \  |    /   |      \           
                |  |  |   | |  | | |   __   |  |    \   |  |\   \          
                \     /   | |  | | |  |  |  |  | |\  \  |  | \   \       
                 \___/    |_|  |_| |__|  |__|  |_| \__\ |__|  \__/        
                                                                              
                      - O R C A' S   B I G   F R I E N D -                    
                                      &                                       
                       - I N T E G R A L  F E E D E R -                       
                                                                              
 v1 FN, 2020, v2 2021                                                         
------------------------------------------------------------------------------


Reading SHARK input file SbCl5_ts_sp.SHARKINP.tmp ... ok
----------------------
SHARK INTEGRAL PACKAGE
----------------------

Number of atoms                             ...      6
Number of basis functions                   ...    235
Number of shells                            ...     81
Maximum angular momentum                    ...      3
Integral batch strategy                     ... SHARK/LIBINT Hybrid
RI-J (if used) integral strategy            ... SPLIT-RIJ (Revised 2003 algorithm where possible)
Printlevel                                  ...      1
Contraction scheme used                     ... SEGMENTED contraction
Coulomb Range Separation                    ... NOT USED
Exchange Range Separation                   ... NOT USED
Finite Nucleus Model                        ... NOT USED
Auxiliary Coulomb fitting basis             ... AVAILABLE
   # of basis functions in Aux-J            ...    313
   # of shells in Aux-J                     ...    103
   Maximum angular momentum in Aux-J        ...      4
Auxiliary J/K fitting basis                 ... NOT available
Auxiliary Correlation fitting basis         ... NOT available
Auxiliary 'external' fitting basis          ... NOT available
Integral threshold                          ...     1.000000e-10
Primitive cut-off                           ...     1.000000e-11
Primitive pair pre-selection threshold      ...     1.000000e-11

Calculating pre-screening integrals         ... done (  0.1 sec) Dimension = 81
Organizing shell pair data                  ... done (  0.1 sec)
Shell pair information
Total number of shell pairs                 ...      3321
Shell pairs after pre-screening             ...      2729
Total number of primitive shell pairs       ...     13738
Primitive shell pairs kept                  ...      7576
          la=0 lb=0:    354 shell pairs
          la=1 lb=0:    702 shell pairs
          la=1 lb=1:    369 shell pairs
          la=2 lb=0:    351 shell pairs
          la=2 lb=1:    354 shell pairs
          la=2 lb=2:     89 shell pairs
          la=3 lb=0:    189 shell pairs
          la=3 lb=1:    202 shell pairs
          la=3 lb=2:     91 shell pairs
          la=3 lb=3:     28 shell pairs

Calculating one electron integrals          ... done (  0.0 sec)
Calculating ECP integrals                   ... done (  0.2 sec)
Calculating RI/J V-Matrix + Cholesky decomp.... done (  0.0 sec)
Calculating Nuclear repulsion               ... done (  0.0 sec) ENN=    860.867780034485 Eh

SHARK setup successfully completed in   0.6 seconds

Maximum memory used throughout the entire GTOINT-calculation: 87.3 MB
-------------------------------------------------------------------------------
                                 ORCA SCF
-------------------------------------------------------------------------------

------------
SCF SETTINGS
------------
Hamiltonian:
 Density Functional     Method          .... DFT(GTOs)
 Exchange Functional    Exchange        .... PBE
   PBE kappa parameter   XKappa         ....  0.804000
   PBE mue parameter    XMuePBE         ....  0.219520
 Correlation Functional Correlation     .... PBE
   PBE beta parameter  CBetaPBE         ....  0.066725
 LDA part of GGA corr.  LDAOpt          .... PW91-LDA
 Gradients option       PostSCFGGA      .... off
   Density functional embedding theory  .... OFF
   NL short-range parameter             ....  6.400000
 RI-approximation to the Coulomb term is turned on
   Number of AuxJ basis functions       .... 313


General Settings:
 Integral files         IntName         .... SbCl5_ts_sp
 Hartree-Fock type      HFTyp           .... RHF
 Total Charge           Charge          ....    0
 Multiplicity           Mult            ....    1
 Number of Electrons    NEL             ....  108
 Basis Dimension        Dim             ....  235
 Nuclear Repulsion      ENuc            ....    860.8677800345 Eh

Convergence Acceleration:
 DIIS                   CNVDIIS         .... on
   Start iteration      DIISMaxIt       ....    12
   Startup error        DIISStart       ....  0.200000
   # of expansion vecs  DIISMaxEq       ....     5
   Bias factor          DIISBfac        ....   1.050
   Max. coefficient     DIISMaxC        ....  10.000
 Trust-Rad. Augm. Hess. CNVTRAH         .... auto
   Auto Start mean grad. ratio tolernc. ....  1.125000
   Auto Start start iteration           ....    20
   Auto Start num. interpolation iter.  ....    10
   Max. Number of Micro iterations      ....    16
   Max. Number of Macro iterations      .... Maxiter - #DIIS iter
   Number of Davidson start vectors     ....     2
   Converg. threshold I  (grad. norm)   ....   5.000e-05
   Converg. threshold II (energy diff.) ....   1.000e-06
   Grad. Scal. Fac. for Micro threshold ....   0.100
   Minimum threshold for Micro iter.    ....   0.010
   NR start threshold (gradient norm)   ....   0.001
   Initial trust radius                 ....   0.400
   Minimum AH scaling param. (alpha)    ....   1.000
   Maximum AH scaling param. (alpha)    .... 1000.000
   Orbital update algorithm             .... Taylor
   White noise on init. David. guess    .... on
   Maximum white noise                  ....   0.010
   Quad. conv. algorithm                .... NR
 SOSCF                  CNVSOSCF        .... on
   Start iteration      SOSCFMaxIt      ....   150
   Startup grad/error   SOSCFStart      ....  0.003300
 Level Shifting         CNVShift        .... on
   Level shift para.    LevelShift      ....    0.2500
   Turn off err/grad.   ShiftErr        ....    0.0010
 Zerner damping         CNVZerner       .... off
 Static damping         CNVDamp         .... on
   Fraction old density DampFac         ....    0.7000
   Max. Damping (<1)    DampMax         ....    0.9800
   Min. Damping (>=0)   DampMin         ....    0.0000
   Turn off err/grad.   DampErr         ....    0.1000
 Fernandez-Rico         CNVRico         .... off

SCF Procedure:
 Maximum # iterations   MaxIter         ....   125
 SCF integral mode      SCFMode         .... Direct
   Integral package                     .... SHARK and LIBINT hybrid scheme
 Reset frequency        DirectResetFreq ....    20
 Integral Threshold     Thresh          ....  1.000e-10 Eh
 Primitive CutOff       TCut            ....  1.000e-11 Eh

Convergence Tolerance:
 Convergence Check Mode ConvCheckMode   .... Total+1el-Energy
 Convergence forced     ConvForced      .... 0
 Energy Change          TolE            ....  1.000e-06 Eh
 1-El. energy change                    ....  1.000e-03 Eh
 Orbital Gradient       TolG            ....  5.000e-05
 Orbital Rotation angle TolX            ....  5.000e-05
 DIIS Error             TolErr          ....  1.000e-06


Diagonalization of the overlap matrix:
Smallest eigenvalue                        ... 4.435e-03
Time for diagonalization                   ...    0.006 sec
Threshold for overlap eigenvalues          ... 1.000e-08
Number of eigenvalues below threshold      ... 0
Time for construction of square roots      ...    0.005 sec
Total time needed                          ...    0.011 sec

Time for model grid setup =    0.140 sec

------------------------------
INITIAL GUESS: MODEL POTENTIAL
------------------------------
Loading Hartree-Fock densities                     ... done
  calling C:\Users\sandi\Downloads\DFT\orca_files\orca\orca SbCl5_ts_sp_atom51.inp > SbCl5_ts_sp_atom51.out in order to generate an atomic fitting density for atom 0 (Sb with ECP) on-the-fly... 
    atom 0 (Sb), assumed electronic state with S=4: 1s2 2s2 2p6 3s2 3p6 4s2 3d10 4p6 5s2 4d10 5p3           ... done
Calculating cut-offs                               ... done
Initializing the effective Hamiltonian             ... done
Setting up the integral package (SHARK)            ... done
Starting the Coulomb interaction                   ... done (   0.2 sec)
Reading the grid                                   ... done
Mapping shells                                     ... done
Starting the XC term evaluation                    ... done (   0.3 sec)
  promolecular density results
     # of electrons  =    136.002395161
     EX              =   -300.054595752
     EC              =     -6.103423135
     EX+EC           =   -306.158018887
Transforming the Hamiltonian                       ... done (   0.0 sec)
Diagonalizing the Hamiltonian                      ... done (   0.0 sec)
Back transforming the eigenvectors                 ... done (   0.0 sec)
Now organizing SCF variables                       ... done
                      ------------------
                      INITIAL GUESS DONE (   2.1 sec)
                      ------------------
-------------------
DFT GRID GENERATION
-------------------

General Integration Accuracy     IntAcc      ... 4.388
Radial Grid Type                 RadialGrid  ... OptM3 with GC (2021)
Angular Grid (max. ang.)         AngularGrid ... 4 (Lebedev-302)
Angular grid pruning method      GridPruning ... 4 (adaptive)
Weight generation scheme         WeightScheme... Becke
Basis function cutoff            BFCut       ... 1.0000e-10
Integration weight cutoff        WCut        ... 1.0000e-14
Angular grids for H and He will be reduced by one unit
Partially contracted basis set               ... off
Rotationally invariant grid construction     ... off

Total number of grid points                  ...    48475
Total number of batches                      ...      761
Average number of points per batch           ...       63
Average number of grid points per atom       ...     8079
Time for grid setup =    0.516 sec

--------------
SCF ITERATIONS
--------------
ITER       Energy         Delta-E        Max-DP      RMS-DP      [F,P]     Damp
               ***  Starting incremental Fock matrix formation  ***
  0  -2540.4105489314   0.000000000000 0.17020176  0.00132220  0.5251616 0.7000
  1  -2540.4556094823  -0.045060550863 0.11682855  0.00090092  0.3645164 0.7000
  2  -2540.4722998334  -0.016690351077 0.04463812  0.00038801  0.2512987 0.7000
                               ***Turning on DIIS***
  3  -2540.4825647104  -0.010264877045 0.01339113  0.00015970  0.1720710 0.7000
  4  -2540.4902820184  -0.007717308019 0.01156488  0.00009310  0.1180988 0.7000
  5  -2540.4956112673  -0.005329248825 0.02707053  0.00021304  0.0827564 0.0000
                      *** Initiating the SOSCF procedure ***
                           *** Shutting down DIIS ***
                      *** Re-Reading the Fockian *** 
                      *** Removing any level shift *** 
ITER      Energy       Delta-E        Grad      Rot      Max-DP    RMS-DP
  6  -2540.50791476  -0.0123034925  0.000544  0.000544  0.001923  0.000035
               *** Restarting incremental Fock matrix formation ***
  7  -2540.50792170  -0.0000069436  0.000552  0.001533  0.005687  0.000047
  8  -2540.50790642   0.0000152855  0.001266  0.001118  0.003838  0.000031
  9  -2540.50792692  -0.0000204977  0.000087  0.000210  0.000521  0.000009
 10  -2540.50792684   0.0000000793  0.000093  0.000151  0.000251  0.000005
 11  -2540.50792723  -0.0000003903  0.000018  0.000083  0.000112  0.000002
 12  -2540.50792722   0.0000000086  0.000029  0.000051  0.000076  0.000001
                 **** Energy Check signals convergence ****
              ***Rediagonalizing the Fockian in SOSCF/NRSCF***

               *****************************************************
               *                     SUCCESS                       *
               *           SCF CONVERGED AFTER  13 CYCLES          *
               *****************************************************


----------------
TOTAL SCF ENERGY
----------------

Total Energy       :        -2540.50792724 Eh          -69130.73524 eV

Components:
Nuclear Repulsion  :          860.86778003 Eh           23425.40322 eV
Electronic Energy  :        -3401.37570727 Eh          -92556.13846 eV
One Electron Energy:        -5314.13486222 Eh         -144604.96118 eV
Two Electron Energy:         1912.75915495 Eh           52048.82272 eV

Virial components:
Potential Energy   :        -4930.28364716 Eh         -134159.83859 eV
Kinetic Energy     :         2389.77571993 Eh           65029.10336 eV
Virial Ratio       :            2.06307379


DFT components:
N(Alpha)           :       53.999973997734 electrons
N(Beta)            :       53.999973997734 electrons
N(Total)           :      107.999947995469 electrons
E(X)               :     -155.409063060399 Eh       
E(C)               :       -4.389859821700 Eh       
E(XC)              :     -159.798922882099 Eh       
DFET-embed. en.    :        0.000000000000 Eh       

---------------
SCF CONVERGENCE
---------------

  Last Energy change         ...   -1.7066e-08  Tolerance :   1.0000e-06
  Last MAX-Density change    ...    1.5643e-05  Tolerance :   1.0000e-05
  Last RMS-Density change    ...    1.8741e-07  Tolerance :   1.0000e-06
  Last Orbital Gradient      ...    3.7850e-06  Tolerance :   5.0000e-05
  Last Orbital Rotation      ...    3.0582e-06  Tolerance :   5.0000e-05

             **** THE GBW FILE WAS UPDATED (SbCl5_ts_sp.gbw) ****
             **** DENSITY SbCl5_ts_sp.scfp WAS UPDATED ****
             **** ENERGY FILE WAS UPDATED (SbCl5_ts_sp.en.tmp) ****
             **** THE GBW FILE WAS UPDATED (SbCl5_ts_sp.gbw) ****
             **** DENSITY SbCl5_ts_sp.scfp WAS UPDATED ****
----------------
ORBITAL ENERGIES
----------------

  NO   OCC          E(Eh)            E(eV) 
   0   2.0000    -100.700135     -2740.1900 
   1   2.0000    -100.683460     -2739.7362 
   2   2.0000    -100.683460     -2739.7362 
   3   2.0000    -100.683460     -2739.7362 
   4   2.0000    -100.683459     -2739.7362 
   5   2.0000      -9.214069      -250.7276 
   6   2.0000      -9.197502      -250.2767 
   7   2.0000      -9.197502      -250.2767 
   8   2.0000      -9.197500      -250.2767 
   9   2.0000      -9.197499      -250.2767 
  10   2.0000      -7.036512      -191.4732 
  11   2.0000      -7.027711      -191.2337 
  12   2.0000      -7.027711      -191.2337 
  13   2.0000      -7.019899      -191.0212 
  14   2.0000      -7.019899      -191.0212 
  15   2.0000      -7.019899      -191.0212 
  16   2.0000      -7.019897      -191.0211 
  17   2.0000      -7.011700      -190.7981 
  18   2.0000      -7.011698      -190.7980 
  19   2.0000      -7.011696      -190.7980 
  20   2.0000      -7.011696      -190.7980 
  21   2.0000      -7.010637      -190.7691 
  22   2.0000      -7.010637      -190.7691 
  23   2.0000      -7.010637      -190.7691 
  24   2.0000      -7.010635      -190.7691 
  25   2.0000      -5.636099      -153.3660 
  26   2.0000      -3.905405      -106.2715 
  27   2.0000      -3.902899      -106.2033 
  28   2.0000      -3.902899      -106.2033 
  29   2.0000      -1.345612       -36.6160 
  30   2.0000      -1.343307       -36.5532 
  31   2.0000      -1.342915       -36.5426 
  32   2.0000      -1.342915       -36.5426 
  33   2.0000      -1.340721       -36.4829 
  34   2.0000      -0.815894       -22.2016 
  35   2.0000      -0.774097       -21.0642 
  36   2.0000      -0.767901       -20.8956 
  37   2.0000      -0.767901       -20.8956 
  38   2.0000      -0.747264       -20.3341 
  39   2.0000      -0.566887       -15.4258 
  40   2.0000      -0.417857       -11.3705 
  41   2.0000      -0.417857       -11.3705 
  42   2.0000      -0.413068       -11.2401 
  43   2.0000      -0.342593        -9.3224 
  44   2.0000      -0.334013        -9.0890 
  45   2.0000      -0.334013        -9.0890 
  46   2.0000      -0.330532        -8.9942 
  47   2.0000      -0.324811        -8.8386 
  48   2.0000      -0.309902        -8.4329 
  49   2.0000      -0.309902        -8.4329 
  50   2.0000      -0.303277        -8.2526 
  51   2.0000      -0.301831        -8.2132 
  52   2.0000      -0.301831        -8.2132 
  53   2.0000      -0.278803        -7.5866 
  54   0.0000      -0.207043        -5.6339 
  55   0.0000      -0.107053        -2.9131 
  56   0.0000      -0.050306        -1.3689 
  57   0.0000      -0.050306        -1.3689 
  58   0.0000       0.078916         2.1474 
  59   0.0000       0.082735         2.2513 
  60   0.0000       0.082735         2.2513 
  61   0.0000       0.105189         2.8624 
  62   0.0000       0.120558         3.2805 
  63   0.0000       0.120558         3.2805 
  64   0.0000       0.134240         3.6528 
  65   0.0000       0.173253         4.7145 
  66   0.0000       0.183460         4.9922 
  67   0.0000       0.232167         6.3176 
  68   0.0000       0.232167         6.3176 
  69   0.0000       0.238596         6.4925 
  70   0.0000       0.255179         6.9438 
  71   0.0000       0.266856         7.2615 
  72   0.0000       0.266856         7.2615 
  73   0.0000       0.276425         7.5219 
  74   0.0000       0.276425         7.5219 
  75   0.0000       0.276904         7.5350 
  76   0.0000       0.288663         7.8549 
  77   0.0000       0.291724         7.9382 
  78   0.0000       0.298624         8.1260 
  79   0.0000       0.300574         8.1790 
  80   0.0000       0.300574         8.1790 
  81   0.0000       0.305256         8.3064 
  82   0.0000       0.320399         8.7185 
  83   0.0000       0.320680         8.7261 
  84   0.0000       0.320680         8.7261 
  85   0.0000       0.349051         9.4982 
  86   0.0000       0.349076         9.4988 
  87   0.0000       0.374328        10.1860 
  88   0.0000       0.375368        10.2143 
  89   0.0000       0.375368        10.2143 
  90   0.0000       0.378672        10.3042 
  91   0.0000       0.418762        11.3951 
  92   0.0000       0.429583        11.6895 
  93   0.0000       0.450286        12.2529 
  94   0.0000       0.450286        12.2529 
  95   0.0000       0.462345        12.5810 
  96   0.0000       0.507981        13.8229 
  97   0.0000       0.513840        13.9823 
  98   0.0000       0.513840        13.9823 
  99   0.0000       0.546114        14.8605 
 100   0.0000       0.549030        14.9399 
 101   0.0000       0.549030        14.9399 
 102   0.0000       0.564901        15.3717 
 103   0.0000       0.577521        15.7152 
 104   0.0000       0.624019        16.9804 
 105   0.0000       0.651870        17.7383 
 106   0.0000       0.651870        17.7383 
 107   0.0000       0.751889        20.4599 
 108   0.0000       0.774937        21.0871 
 109   0.0000       0.775321        21.0976 
 110   0.0000       0.775321        21.0976 
 111   0.0000       0.821628        22.3576 
 112   0.0000       0.823525        22.4093 
 113   0.0000       0.823525        22.4093 
 114   0.0000       0.864453        23.5230 
 115   0.0000       0.870775        23.6950 
 116   0.0000       0.870776        23.6950 
 117   0.0000       1.054005        28.6809 
 118   0.0000       1.076383        29.2899 
 119   0.0000       1.088165        29.6105 
 120   0.0000       1.138266        30.9738 
 121   0.0000       1.138266        30.9738 
 122   0.0000       1.168913        31.8077 
 123   0.0000       1.190234        32.3879 
 124   0.0000       1.190234        32.3879 
 125   0.0000       1.190458        32.3940 
 126   0.0000       1.201718        32.7004 
 127   0.0000       1.597809        43.4786 
 128   0.0000       1.611910        43.8623 
 129   0.0000       1.611910        43.8623 
 130   0.0000       1.618170        44.0326 
 131   0.0000       1.641033        44.6548 
 132   0.0000       1.641033        44.6548 
 133   0.0000       1.642726        44.7009 
 134   0.0000       1.655633        45.0521 
 135   0.0000       1.657680        45.1078 
 136   0.0000       1.682848        45.7926 
 137   0.0000       1.701785        46.3079 
 138   0.0000       1.701785        46.3079 
 139   0.0000       1.713806        46.6350 
 140   0.0000       1.729813        47.0706 
 141   0.0000       1.760943        47.9177 
 142   0.0000       1.764090        48.0033 
 143   0.0000       1.769814        48.1591 
 144   0.0000       1.769814        48.1591 
 145   0.0000       1.788828        48.6765 
 146   0.0000       1.790004        48.7085 
 147   0.0000       1.791055        48.7371 
 148   0.0000       1.800432        48.9923 
 149   0.0000       1.800432        48.9923 
 150   0.0000       1.833226        49.8846 
 151   0.0000       1.833226        49.8846 
 152   0.0000       1.927416        52.4477 
 153   0.0000       1.938204        52.7412 
 154   0.0000       1.938204        52.7412 
 155   0.0000       1.939795        52.7845 
 156   0.0000       1.947645        52.9981 
 157   0.0000       1.950183        53.0672 
 158   0.0000       1.950701        53.0813 
 159   0.0000       1.950968        53.0885 
 160   0.0000       1.950968        53.0885 
 161   0.0000       1.958575        53.2955 
 162   0.0000       1.964416        53.4545 
 163   0.0000       1.964416        53.4545 
 164   0.0000       1.966159        53.5019 
 165   0.0000       1.972830        53.6834 
 166   0.0000       1.972830        53.6834 
 167   0.0000       1.976618        53.7865 
 168   0.0000       1.979323        53.8601 
 169   0.0000       1.979323        53.8601 
 170   0.0000       1.979777        53.8725 
 171   0.0000       1.980314        53.8871 
 172   0.0000       1.981597        53.9220 
 173   0.0000       1.982508        53.9468 
 174   0.0000       1.982795        53.9546 
 175   0.0000       1.982795        53.9546 
 176   0.0000       1.990098        54.1533 
 177   0.0000       1.995550        54.3017 
 178   0.0000       1.995550        54.3017 
 179   0.0000       2.087199        56.7956 
 180   0.0000       2.087199        56.7956 
 181   0.0000       2.091829        56.9216 
 182   0.0000       2.115284        57.5598 
 183   0.0000       2.146330        58.4046 
 184   0.0000       2.151133        58.5353 
 185   0.0000       2.151133        58.5353 
 186   0.0000       2.163761        58.8789 
 187   0.0000       2.200579        59.8808 
 188   0.0000       2.200579        59.8808 
 189   0.0000       2.205709        60.0204 
 190   0.0000       2.206067        60.0301 
 191   0.0000       2.206067        60.0301 
 192   0.0000       2.209518        60.1240 
 193   0.0000       2.223681        60.5094 
 194   0.0000       2.224193        60.5234 
 195   0.0000       2.224193        60.5234 
 196   0.0000       2.324531        63.2537 
 197   0.0000       2.407952        65.5237 
 198   0.0000       2.407952        65.5237 
 199   0.0000       2.408229        65.5313 
 200   0.0000       2.528846        68.8134 
 201   0.0000       2.549399        69.3727 
 202   0.0000       2.637846        71.7794 
 203   0.0000       2.672665        72.7269 
 204   0.0000       2.672665        72.7269 
 205   0.0000       2.744947        74.6938 
 206   0.0000       2.891989        78.6950 
 207   0.0000       3.079353        83.7934 
 208   0.0000       3.079353        83.7935 
 209   0.0000       3.777503       102.7911 
 210   0.0000      10.473777       285.0060 
 211   0.0000      10.473777       285.0060 
 212   0.0000      10.498039       285.6662 
 213   0.0000      10.498039       285.6662 
 214   0.0000      10.500219       285.7255 
 215   0.0000      10.510890       286.0159 
 216   0.0000      10.531328       286.5720 
 217   0.0000      10.531681       286.5816 
 218   0.0000      10.540455       286.8204 
 219   0.0000      10.540455       286.8204 
 220   0.0000      10.670674       290.3638 
 221   0.0000      10.702742       291.2364 
 222   0.0000      10.755882       292.6824 
 223   0.0000      10.755882       292.6824 
 224   0.0000      10.785389       293.4853 
 225   0.0000      24.615860       669.8316 
 226   0.0000      24.648918       670.7312 
 227   0.0000      24.710411       672.4045 
 228   0.0000      24.710411       672.4045 
 229   0.0000      24.883263       677.1080 
 230   0.0000      38.988951      1060.9433 
 231   0.0000      39.004908      1061.3775 
 232   0.0000      39.004908      1061.3775 
 233   0.0000      39.905552      1085.8853 
 234   0.0000     112.686986      3066.3688 

                    ********************************
                    * MULLIKEN POPULATION ANALYSIS *
                    ********************************

-----------------------
MULLIKEN ATOMIC CHARGES
-----------------------
   0 Sb:    0.995482
   1 Cl:   -0.190753
   2 Cl:   -0.201182
   3 Cl:   -0.201182
   4 Cl:   -0.201182
   5 Cl:   -0.201182
Sum of atomic charges:   -0.0000000

--------------------------------
MULLIKEN REDUCED ORBITAL CHARGES
--------------------------------
  0 Sbs       :     3.366626  s :     3.366626
      pz      :     2.649503  p :     7.920457
      px      :     2.649503
      py      :     2.621451
      dz2     :     2.124271  d :    10.568012
      dxz     :     2.123072
      dyz     :     2.114246
      dx2y2   :     2.092177
      dxy     :     2.114246
      f0      :     0.033707  f :     0.149424
      f+1     :     0.026606
      f-1     :     0.022083
      f+2     :     0.018242
      f-2     :     0.003464
      f+3     :     0.025342
      f-3     :     0.019980
  1 Cls       :     5.960223  s :     5.960223
      pz      :     3.898503  p :    11.194282
      px      :     3.898503
      py      :     3.397275
      dz2     :     0.005564  d :     0.033866
      dxz     :     0.000080
      dyz     :     0.006323
      dx2y2   :     0.015576
      dxy     :     0.006323
      f0      :     0.000194  f :     0.002382
      f+1     :     0.000035
      f-1     :     0.000508
      f+2     :     0.000326
      f-2     :     0.000007
      f+3     :     0.000485
      f-3     :     0.000828
  2 Cls       :     5.960299  s :     5.960299
      pz      :     3.925886  p :    11.207067
      px      :     3.410509
      py      :     3.870672
      dz2     :     0.005934  d :     0.031708
      dxz     :     0.006023
      dyz     :     0.000508
      dx2y2   :     0.012352
      dxy     :     0.006891
      f0      :     0.000174  f :     0.002109
      f+1     :     0.000519
      f-1     :     0.000054
      f+2     :     0.000228
      f-2     :     0.000054
      f+3     :     0.000586
      f-3     :     0.000493
  3 Cls       :     5.960299  s :     5.960299
      pz      :     3.925886  p :    11.207067
      px      :     3.410509
      py      :     3.870672
      dz2     :     0.005934  d :     0.031708
      dxz     :     0.006023
      dyz     :     0.000508
      dx2y2   :     0.012352
      dxy     :     0.006891
      f0      :     0.000174  f :     0.002109
      f+1     :     0.000519
      f-1     :     0.000054
      f+2     :     0.000228
      f-2     :     0.000054
      f+3     :     0.000586
      f-3     :     0.000493
  4 Cls       :     5.960299  s :     5.960299
      pz      :     3.410509  p :    11.207067
      px      :     3.925886
      py      :     3.870672
      dz2     :     0.016884  d :     0.031708
      dxz     :     0.006023
      dyz     :     0.006891
      dx2y2   :     0.001402
      dxy     :     0.000508
      f0      :     0.001000  f :     0.002109
      f+1     :     0.000390
      f-1     :     0.000539
      f+2     :     0.000105
      f-2     :     0.000054
      f+3     :     0.000012
      f-3     :     0.000008
  5 Cls       :     5.960299  s :     5.960299
      pz      :     3.410509  p :    11.207067
      px      :     3.925886
      py      :     3.870672
      dz2     :     0.016884  d :     0.031708
      dxz     :     0.006023
      dyz     :     0.006891
      dx2y2   :     0.001402
      dxy     :     0.000508
      f0      :     0.001000  f :     0.002109
      f+1     :     0.000390
      f-1     :     0.000539
      f+2     :     0.000105
      f-2     :     0.000054
      f+3     :     0.000012
      f-3     :     0.000008


                     *******************************
                     * LOEWDIN POPULATION ANALYSIS *
                     *******************************

----------------------
LOEWDIN ATOMIC CHARGES
----------------------
   0 Sb:   -0.312566
   1 Cl:    0.104243
   2 Cl:    0.052081
   3 Cl:    0.052081
   4 Cl:    0.052081
   5 Cl:    0.052081

-------------------------------
LOEWDIN REDUCED ORBITAL CHARGES
-------------------------------
  0 Sbs       :     3.127084  s :     3.127084
      pz      :     2.828413  p :     8.430975
      px      :     2.828413
      py      :     2.774150
      dz2     :     2.433406  d :    11.381059
      dxz     :     2.196864
      dyz     :     2.207793
      dx2y2   :     2.335204
      dxy     :     2.207793
      f0      :     0.088936  f :     0.373448
      f+1     :     0.063946
      f-1     :     0.059485
      f+2     :     0.036873
      f-2     :     0.006157
      f+3     :     0.061863
      f-3     :     0.056190
  1 Cls       :     5.717939  s :     5.717939
      pz      :     3.851309  p :    11.123663
      px      :     3.851309
      py      :     3.421046
      dz2     :     0.009575  d :     0.050174
      dxz     :     0.000060
      dyz     :     0.006470
      dx2y2   :     0.027599
      dxy     :     0.006470
      f0      :     0.000209  f :     0.003981
      f+1     :     0.000040
      f-1     :     0.001073
      f+2     :     0.000358
      f-2     :     0.000005
      f+3     :     0.000528
      f-3     :     0.001769
  2 Cls       :     5.740863  s :     5.740863
      pz      :     3.889347  p :    11.155195
      px      :     3.434545
      py      :     3.831303
      dz2     :     0.009686  d :     0.048317
      dxz     :     0.007125
      dyz     :     0.000505
      dx2y2   :     0.022537
      dxy     :     0.008464
      f0      :     0.000194  f :     0.003544
      f+1     :     0.000994
      f-1     :     0.000072
      f+2     :     0.000277
      f-2     :     0.000061
      f+3     :     0.001185
      f-3     :     0.000761
  3 Cls       :     5.740863  s :     5.740863
      pz      :     3.889347  p :    11.155195
      px      :     3.434545
      py      :     3.831303
      dz2     :     0.009686  d :     0.048317
      dxz     :     0.007125
      dyz     :     0.000505
      dx2y2   :     0.022537
      dxy     :     0.008464
      f0      :     0.000194  f :     0.003544
      f+1     :     0.000994
      f-1     :     0.000072
      f+2     :     0.000277
      f-2     :     0.000061
      f+3     :     0.001185
      f-3     :     0.000761
  4 Cls       :     5.740863  s :     5.740863
      pz      :     3.434545  p :    11.155195
      px      :     3.889347
      py      :     3.831303
      dz2     :     0.030592  d :     0.048317
      dxz     :     0.007125
      dyz     :     0.008464
      dx2y2   :     0.001631
      dxy     :     0.000505
      f0      :     0.002056  f :     0.003544
      f+1     :     0.000454
      f-1     :     0.000824
      f+2     :     0.000123
      f-2     :     0.000061
      f+3     :     0.000017
      f-3     :     0.000009
  5 Cls       :     5.740863  s :     5.740863
      pz      :     3.434545  p :    11.155195
      px      :     3.889347
      py      :     3.831303
      dz2     :     0.030592  d :     0.048317
      dxz     :     0.007125
      dyz     :     0.008464
      dx2y2   :     0.001631
      dxy     :     0.000505
      f0      :     0.002056  f :     0.003544
      f+1     :     0.000454
      f-1     :     0.000824
      f+2     :     0.000123
      f-2     :     0.000061
      f+3     :     0.000017
      f-3     :     0.000009


                      *****************************
                      * MAYER POPULATION ANALYSIS *
                      *****************************

  NA   - Mulliken gross atomic population
  ZA   - Total nuclear charge
  QA   - Mulliken gross atomic charge
  VA   - Mayer's total valence
  BVA  - Mayer's bonded valence
  FA   - Mayer's free valence

  ATOM       NA         ZA         QA         VA         BVA        FA
  0 Sb    22.0045    23.0000     0.9955     4.9528     4.9528    -0.0000
  1 Cl    17.1908    17.0000    -0.1908     1.2317     1.2317    -0.0000
  2 Cl    17.2012    17.0000    -0.2012     1.2058     1.2058     0.0000
  3 Cl    17.2012    17.0000    -0.2012     1.2058     1.2058     0.0000
  4 Cl    17.2012    17.0000    -0.2012     1.2058     1.2058    -0.0000
  5 Cl    17.2012    17.0000    -0.2012     1.2058     1.2058    -0.0000

  Mayer bond orders larger than 0.100000
B(  0-Sb,  1-Cl) :   1.0380 B(  0-Sb,  2-Cl) :   0.9787 B(  0-Sb,  3-Cl) :   0.9787 
B(  0-Sb,  4-Cl) :   0.9787 B(  0-Sb,  5-Cl) :   0.9787 

-------
TIMINGS
-------

Total SCF time: 0 days 0 hours 0 min 13 sec 

Total time                  ....      13.499 sec
Sum of individual times     ....      13.187 sec  ( 97.7%)

Fock matrix formation       ....      10.357 sec  ( 76.7%)
  Split-RI-J                ....       3.453 sec  ( 33.3% of F)
  XC integration            ....       6.811 sec  ( 65.8% of F)
    Basis function eval.    ....       2.199 sec  ( 32.3% of XC)
    Density eval.           ....       2.008 sec  ( 29.5% of XC)
    XC-Functional eval.     ....       0.344 sec  (  5.1% of XC)
    XC-Potential eval.      ....       1.877 sec  ( 27.6% of XC)
Diagonalization             ....       0.074 sec  (  0.5%)
Density matrix formation    ....       0.020 sec  (  0.1%)
Population analysis         ....       0.021 sec  (  0.2%)
Initial guess               ....       1.931 sec  ( 14.3%)
Orbital Transformation      ....       0.000 sec  (  0.0%)
Orbital Orthonormalization  ....       0.000 sec  (  0.0%)
DIIS solution               ....       0.060 sec  (  0.4%)
SOSCF solution              ....       0.068 sec  (  0.5%)
Grid generation             ....       0.656 sec  (  4.9%)

Maximum memory used throughout the entire SCF-calculation: 103.3 MB

-------------------------   --------------------
FINAL SINGLE POINT ENERGY     -2540.507927235009
-------------------------   --------------------


                            ***************************************
                            *     ORCA property calculations      *
                            ***************************************

                                    ---------------------
                                    Active property flags
                                    ---------------------
   (+) Dipole Moment


------------------------------------------------------------------------------
                       ORCA ELECTRIC PROPERTIES CALCULATION
------------------------------------------------------------------------------

Dipole Moment Calculation                       ... on
Quadrupole Moment Calculation                   ... off
Polarizability Calculation                      ... off
GBWName                                         ... SbCl5_ts_sp.gbw
Electron density                                ... SbCl5_ts_sp.scfp
The origin for moment calculation is the CENTER OF MASS  = ( 0.000000, -0.064724  0.000000)

-------------
DIPOLE MOMENT
-------------
                                X             Y             Z
Electronic contribution:     -0.00000      -2.50965       0.00000
Nuclear contribution   :      0.00000       2.57370       0.00000
                        -----------------------------------------
Total Dipole Moment    :     -0.00000       0.06405       0.00000
                        -----------------------------------------
Magnitude (a.u.)       :      0.06405
Magnitude (Debye)      :      0.16279



--------------------
Rotational spectrum 
--------------------
 
Rotational constants in cm-1:     0.027949     0.027949     0.022243 
Rotational constants in MHz :   837.897359   837.897359   666.829799 

 Dipole components along the rotational axes: 
x,y,z [a.u.] :    -0.000000     0.000000     0.064047 
x,y,z [Debye]:    -0.000000     0.000000     0.162795 

 

Timings for individual modules:

Sum of individual times         ...       14.165 sec (=   0.236 min)
GTO integral calculation        ...        0.627 sec (=   0.010 min)   4.4 %
SCF iterations                  ...       13.538 sec (=   0.226 min)  95.6 %
                             ****ORCA TERMINATED NORMALLY****
TOTAL RUN TIME: 0 days 0 hours 0 minutes 14 seconds 403 msec
