6
Coordinates from ORCA-job PF5_ts_scan Relaxed Surface Scan Step 1
  P       0.000000      0.007636     -0.000000
  F      -0.000000      1.541636     -0.000000
  F       1.361830     -0.767262      0.000000
  F      -1.361830     -0.767262      0.000000
  F       0.000000     -0.007374      1.604004
  F       0.000000     -0.007374     -1.604004
>
6
Coordinates from ORCA-job PF5_ts_scan Relaxed Surface Scan Step 2
  P       0.000000      0.006343     -0.000000
  F      -0.000000      1.545121      0.000000
  F       1.361855     -0.768509      0.000000
  F      -1.361855     -0.768509      0.000000
  F       0.000000     -0.007223      1.603903
  F       0.000000     -0.007223     -1.603903
>
6
Coordinates from ORCA-job PF5_ts_scan Relaxed Surface Scan Step 3
  P       0.000000      0.005013     -0.000000
  F      -0.000000      1.548568      0.000000
  F       1.361760     -0.769896      0.000000
  F      -1.361760     -0.769896      0.000000
  F       0.000000     -0.006895      1.603684
  F       0.000000     -0.006895     -1.603684
>
6
Coordinates from ORCA-job PF5_ts_scan Relaxed Surface Scan Step 4
  P       0.000000      0.003556     -0.000000
  F      -0.000000      1.551890     -0.000000
  F       1.361051     -0.772104      0.000000
  F      -1.361051     -0.772104      0.000000
  F       0.000000     -0.005619      1.603061
  F       0.000000     -0.005619     -1.603061
>
6
Coordinates from ORCA-job PF5_ts_scan Relaxed Surface Scan Step 5
  P       0.000000      0.002456     -0.000000
  F      -0.000000      1.555567     -0.000000
  F       1.360799     -0.773543      0.000000
  F      -1.360799     -0.773543      0.000000
  F       0.000000     -0.005468      1.602877
  F       0.000000     -0.005468     -1.602877
>
6
Coordinates from ORCA-job PF5_ts_scan Relaxed Surface Scan Step 6
  P       0.000000      0.002237      0.000000
  F      -0.000000      1.560126     -0.000000
  F       1.356560     -0.780267     -0.000000
  F      -1.356560     -0.780267     -0.000000
  F      -0.000000     -0.000915      1.602192
  F      -0.000000     -0.000915     -1.602192
>
6
Coordinates from ORCA-job PF5_ts_scan Relaxed Surface Scan Step 7
  P       0.000000      0.000900      0.000000
  F      -0.000000      1.563567     -0.000000
  F       1.356589     -0.781535      0.000000
  F      -1.356589     -0.781535     -0.000000
  F      -0.000000     -0.000699      1.602071
  F      -0.000000     -0.000699     -1.602071
>
6
Coordinates from ORCA-job PF5_ts_scan Relaxed Surface Scan Step 8
  P       0.000000     -0.000436     -0.000000
  F      -0.000000      1.567009      0.000000
  F       1.356487     -0.782922      0.000000
  F      -1.356487     -0.782922     -0.000000
  F      -0.000000     -0.000364      1.601839
  F      -0.000000     -0.000364     -1.601839
>
6
Coordinates from ORCA-job PF5_ts_scan Relaxed Surface Scan Step 9
  P      -0.000000     -0.001891     -0.000000
  F      -0.000000      1.570332      0.000000
  F       1.355764     -0.785126     -0.000000
  F      -1.355764     -0.785126     -0.000000
  F       0.000000      0.000906      1.601202
  F       0.000000      0.000906     -1.601202
>
6
Coordinates from ORCA-job PF5_ts_scan Relaxed Surface Scan Step 10
  P       0.000000     -0.002990      0.000000
  F      -0.000000      1.574010      0.000000
  F       1.355510     -0.786564     -0.000000
  F      -1.355510     -0.786564     -0.000000
  F      -0.000000      0.001055      1.601013
  F      -0.000000      0.001055     -1.601013
