
                                 *****************
                                 * O   R   C   A *
                                 *****************

                                            #,                                       
                                            ###                                      
                                            ####                                     
                                            #####                                    
                                            ######                                   
                                           ########,                                 
                                     ,,################,,,,,                         
                               ,,#################################,,                 
                          ,,##########################################,,             
                       ,#########################################, ''#####,          
                    ,#############################################,,   '####,        
                  ,##################################################,,,,####,       
                ,###########''''           ''''###############################       
              ,#####''   ,,,,##########,,,,          '''####'''          '####       
            ,##' ,,,,###########################,,,                        '##       
           ' ,,###''''                  '''############,,,                           
         ,,##''                                '''############,,,,        ,,,,,,###''
      ,#''                                            '''#######################'''  
     '                                                          ''''####''''         
             ,#######,   #######,   ,#######,      ##                                
            ,#'     '#,  ##    ##  ,#'     '#,    #''#        ######   ,####,        
            ##       ##  ##   ,#'  ##            #'  '#       #        #'  '#        
            ##       ##  #######   ##           ,######,      #####,   #    #        
            '#,     ,#'  ##    ##  '#,     ,#' ,#      #,         ##   #,  ,#        
             '#######'   ##     ##  '#######'  #'      '#     #####' # '####'        



                  #######################################################
                  #                        -***-                        #
                  #          Department of theory and spectroscopy      #
                  #    Directorship and core code : Frank Neese         #
                  #        Max Planck Institute fuer Kohlenforschung    #
                  #                Kaiser Wilhelm Platz 1               #
                  #                 D-45470 Muelheim/Ruhr               #
                  #                      Germany                        #
                  #                                                     #
                  #                  All rights reserved                #
                  #                        -***-                        #
                  #######################################################



                         Program Version 5.0.4 -  RELEASE  -

 With contributions from (in alphabetic order):
   Daniel Aravena         : Magnetic Suceptibility
   Michael Atanasov       : Ab Initio Ligand Field Theory (pilot matlab implementation)
   Alexander A. Auer      : GIAO ZORA, VPT2 properties, NMR spectrum
   Ute Becker             : Parallelization
   Giovanni Bistoni       : ED, misc. LED, open-shell LED, HFLD
   Martin Brehm           : Molecular dynamics
   Dmytro Bykov           : SCF Hessian
   Vijay G. Chilkuri      : MRCI spin determinant printing, contributions to CSF-ICE
   Dipayan Datta          : RHF DLPNO-CCSD density
   Achintya Kumar Dutta   : EOM-CC, STEOM-CC
   Dmitry Ganyushin       : Spin-Orbit,Spin-Spin,Magnetic field MRCI
   Miquel Garcia          : C-PCM and meta-GGA Hessian, CC/C-PCM, Gaussian charge scheme
   Yang Guo               : DLPNO-NEVPT2, F12-NEVPT2, CIM, IAO-localization
   Andreas Hansen         : Spin unrestricted coupled pair/coupled cluster methods
   Benjamin Helmich-Paris : MC-RPA, TRAH-SCF, COSX integrals
   Lee Huntington         : MR-EOM, pCC
   Robert Izsak           : Overlap fitted RIJCOSX, COSX-SCS-MP3, EOM
   Marcus Kettner         : VPT2
   Christian Kollmar      : KDIIS, OOCD, Brueckner-CCSD(T), CCSD density, CASPT2, CASPT2-K
   Simone Kossmann        : Meta GGA functionals, TD-DFT gradient, OOMP2, MP2 Hessian
   Martin Krupicka        : Initial AUTO-CI
   Lucas Lang             : DCDCAS
   Marvin Lechner         : AUTO-CI (C++ implementation), FIC-MRCC
   Dagmar Lenk            : GEPOL surface, SMD
   Dimitrios Liakos       : Extrapolation schemes; Compound Job, initial MDCI parallelization
   Dimitrios Manganas     : Further ROCIS development; embedding schemes
   Dimitrios Pantazis     : SARC Basis sets
   Anastasios Papadopoulos: AUTO-CI, single reference methods and gradients
   Taras Petrenko         : DFT Hessian,TD-DFT gradient, ASA, ECA, R-Raman, ABS, FL, XAS/XES, NRVS
   Peter Pinski           : DLPNO-MP2, DLPNO-MP2 Gradient
   Christoph Reimann      : Effective Core Potentials
   Marius Retegan         : Local ZFS, SOC
   Christoph Riplinger    : Optimizer, TS searches, QM/MM, DLPNO-CCSD(T), (RO)-DLPNO pert. Triples
   Tobias Risthaus        : Range-separated hybrids, TD-DFT gradient, RPA, STAB
   Michael Roemelt        : Original ROCIS implementation
   Masaaki Saitow         : Open-shell DLPNO-CCSD energy and density
   Barbara Sandhoefer     : DKH picture change effects
   Avijit Sen             : IP-ROCIS
   Kantharuban Sivalingam : CASSCF convergence, NEVPT2, FIC-MRCI
   Bernardo de Souza      : ESD, SOC TD-DFT
   Georgi Stoychev        : AutoAux, RI-MP2 NMR, DLPNO-MP2 response
   Willem Van den Heuvel  : Paramagnetic NMR
   Boris Wezisla          : Elementary symmetry handling
   Frank Wennmohs         : Technical directorship


 We gratefully acknowledge several colleagues who have allowed us to
 interface, adapt or use parts of their codes:
   Stefan Grimme, W. Hujo, H. Kruse, P. Pracht,  : VdW corrections, initial TS optimization,
                  C. Bannwarth, S. Ehlert          DFT functionals, gCP, sTDA/sTD-DF
   Ed Valeev, F. Pavosevic, A. Kumar             : LibInt (2-el integral package), F12 methods
   Garnet Chan, S. Sharma, J. Yang, R. Olivares  : DMRG
   Ulf Ekstrom                                   : XCFun DFT Library
   Mihaly Kallay                                 : mrcc  (arbitrary order and MRCC methods)
   Jiri Pittner, Ondrej Demel                    : Mk-CCSD
   Frank Weinhold                                : gennbo (NPA and NBO analysis)
   Christopher J. Cramer and Donald G. Truhlar   : smd solvation model
   Lars Goerigk                                  : TD-DFT with DH, B97 family of functionals
   V. Asgeirsson, H. Jonsson                     : NEB implementation
   FAccTs GmbH                                   : IRC, NEB, NEB-TS, DLPNO-Multilevel, CI-OPT
                                                   MM, QMMM, 2- and 3-layer-ONIOM, Crystal-QMMM,
                                                   LR-CPCM, SF, NACMEs, symmetry and pop. for TD-DFT,
                                                   nearIR, NL-DFT gradient (VV10), updates on ESD,
                                                   ML-optimized integration grids
   S Lehtola, MJT Oliveira, MAL Marques          : LibXC Library
   Liviu Ungur et al                             : ANISO software


 Your calculation uses the libint2 library for the computation of 2-el integrals
 For citations please refer to: http://libint.valeyev.net

 Your ORCA version has been built with support for libXC version: 5.1.0
 For citations please refer to: https://tddft.org/programs/libxc/

 This ORCA versions uses:
   CBLAS   interface :  Fast vector & matrix operations
   LAPACKE interface :  Fast linear algebra routines
   Shared memory     :  Shared parallel matrices


================================================================================

----- Orbital basis set information -----
Your calculation utilizes the basis: def2-TZVP
   F. Weigend and R. Ahlrichs, Phys. Chem. Chem. Phys. 7, 3297 (2005).

----- AuxJ basis set information -----
Your calculation utilizes the auxiliary basis: def2/J
   F. Weigend, Phys. Chem. Chem. Phys. 8, 1057 (2006).

================================================================================
                                        WARNINGS
                       Please study these warnings very carefully!
================================================================================


WARNING: Geometry Optimization
  ===> : Switching off AutoStart
         For restart on a previous wavefunction, please use MOREAD

INFO   : the flag for use of the SHARK integral package has been found!

================================================================================
                                       INPUT FILE
================================================================================
NAME = PF5_ts_scan.inp
|  1> ! PBE def2-TZVP 
|  2> ! ScanTS
|  3> 
|  4> %geom
|  5> Scan
|  6> B 0 1 = 1.5340, 1.5770, 10
|  7> end
|  8> end
|  9> 
| 10> * xyz 0 1
| 11> P  0.0000  0.0000  0.0000  # Phosphorus (P)
| 12> F  0.0000  1.5340  0.0000  # Equatorial Fluorine (F1)
| 13> F  1.3285 -0.7670  0.0000  # Equatorial Fluorine (F2)
| 14> F -1.3285 -0.7670  0.0000  # Equatorial Fluorine (F3)
| 15> F  0.0000  0.0000  1.5770  # Axial Fluorine (F4)
| 16> F  0.0000  0.0000 -1.5770  # Axial Fluorine (F5)
| 17> *
| 18> 
| 19>                          ****END OF INPUT****
================================================================================

                       ******************************
                       *    Relaxed Surface Scan    *
                       ******************************

                      Bond (  1,   0):   range=   1.53400000 ..   1.57700000  steps =   10

There is 1 parameter to be scanned.
There will be   10 constrained geometry optimizations.


         *************************************************************
         *               RELAXED SURFACE SCAN STEP   1               *
         *                                                           *
         *                 Bond (  1,   0)  :   1.53400000           *
         *************************************************************

Geometry optimization settings:
Update method            Update   .... BFGS
Choice of coordinates    CoordSys .... Z-matrix Internals
Initial Hessian          InHess   .... Almoef's Model

Convergence Tolerances:
Energy Change            TolE     ....  5.0000e-06 Eh
Max. Gradient            TolMAXG  ....  3.0000e-04 Eh/bohr
RMS Gradient             TolRMSG  ....  1.0000e-04 Eh/bohr
Max. Displacement        TolMAXD  ....  4.0000e-03 bohr
RMS Displacement         TolRMSD  ....  2.0000e-03 bohr
Strict Convergence                ....  False
------------------------------------------------------------------------------
                        ORCA OPTIMIZATION COORDINATE SETUP
------------------------------------------------------------------------------

The optimization will be done in new redundant internal coordinates
Making redundant internal coordinates   ...  (new redundants) done
Evaluating the initial hessian          ...  (Almloef) done
Evaluating the coordinates              ...  done
Calculating the B-matrix                .... done
Calculating the G-matrix                .... done
Diagonalizing the G-matrix              .... done
Imposing constraints:
 Iter   0:  RMS(Cart)=    0.0000000001 RMS(Int)=    0.0000000000
CONVERGED
Will constrain atom 0 coordinate 1 
Will constrain atom 0 coordinate 3 
Will constrain atom 1 coordinate 1 
Will constrain atom 1 coordinate 3 
Will constrain atom 2 coordinate 3 
Will constrain atom 3 coordinate 3 
Will constrain atom 4 coordinate 1 
Will constrain atom 5 coordinate 1 
The first mode is                       ....    2
The number of degrees of freedom        ....   12
Storing new coordinates                 .... done

    -----------------------------------------------------------------
                    Redundant Internal Coordinates


    -----------------------------------------------------------------
         Definition                    Initial Value    Approx d2E/dq
    -----------------------------------------------------------------
      1. B(F   1,P   0)                  1.5340         1.029717 C 
      2. B(F   2,P   0)                  1.5340         1.029661   
      3. B(F   3,P   0)                  1.5340         1.029661   
      4. B(F   4,P   0)                  1.5770         0.879254   
      5. B(F   5,P   0)                  1.5770         0.879254   
      6. A(F   2,P   0,F   3)          120.0006         0.588540   
      7. A(F   1,P   0,F   4)           90.0000         0.571007   
      8. A(F   2,P   0,F   4)           90.0000         0.571001   
      9. A(F   3,P   0,F   4)           90.0000         0.571001   
     10. A(F   1,P   0,F   5)           90.0000         0.571007   
     11. A(F   2,P   0,F   5)           90.0000         0.571001   
     12. A(F   3,P   0,F   5)           90.0000         0.571001   
     13. A(F   1,P   0,F   2)          119.9997         0.588546   
     14. A(F   1,P   0,F   3)          119.9997         0.588546   
    -----------------------------------------------------------------

Number of atoms                         .... 6
Number of degrees of freedom            .... 14

         *************************************************************
         *                GEOMETRY OPTIMIZATION CYCLE   1            *
         *************************************************************
---------------------------------
CARTESIAN COORDINATES (ANGSTROEM)
---------------------------------
  P     -0.000000   -0.000000    0.000000
  F     -0.000000    1.534000    0.000000
  F      1.328500   -0.767000    0.000000
  F     -1.328500   -0.767000   -0.000000
  F      0.000000   -0.000000    1.577000
  F     -0.000000   -0.000000   -1.577000

----------------------------
CARTESIAN COORDINATES (A.U.)
----------------------------
  NO LB      ZA    FRAG     MASS         X           Y           Z
   0 P    15.0000    0    30.974   -0.000000   -0.000000    0.000000
   1 F     9.0000    0    18.998   -0.000000    2.898840    0.000000
   2 F     9.0000    0    18.998    2.510501   -1.449420    0.000000
   3 F     9.0000    0    18.998   -2.510501   -1.449420   -0.000000
   4 F     9.0000    0    18.998    0.000000   -0.000000    2.980098
   5 F     9.0000    0    18.998   -0.000000   -0.000000   -2.980098

--------------------------------
INTERNAL COORDINATES (ANGSTROEM)
--------------------------------
 P      0   0   0     0.000000000000     0.00000000     0.00000000
 F      1   0   0     1.534000000000     0.00000000     0.00000000
 F      1   2   0     1.534014748951   119.99968195     0.00000000
 F      1   2   3     1.534014748951   119.99968195   180.00000000
 F      1   2   3     1.577000000000    90.00000000    90.00000000
 F      1   2   3     1.577000000000    90.00000000   270.00000000

---------------------------
INTERNAL COORDINATES (A.U.)
---------------------------
 P      0   0   0     0.000000000000     0.00000000     0.00000000
 F      1   0   0     2.898839889435     0.00000000     0.00000000
 F      1   2   0     2.898867760914   119.99968195     0.00000000
 F      1   2   3     2.898867760914   119.99968195   180.00000000
 F      1   2   3     2.980098113194    90.00000000    90.00000000
 F      1   2   3     2.980098113194    90.00000000   270.00000000

---------------------
BASIS SET INFORMATION
---------------------
There are 2 groups of distinct atoms

 Group   1 Type P   : 14s9p3d1f contracted to 5s5p2d1f pattern {73211/51111/21/1}
 Group   2 Type F   : 11s6p2d1f contracted to 5s3p2d1f pattern {62111/411/11/1}

Atom   0P    basis set group =>   1
Atom   1F    basis set group =>   2
Atom   2F    basis set group =>   2
Atom   3F    basis set group =>   2
Atom   4F    basis set group =>   2
Atom   5F    basis set group =>   2
---------------------------------
AUXILIARY/J BASIS SET INFORMATION
---------------------------------
There are 2 groups of distinct atoms

 Group   1 Type P   : 14s5p5d2f1g contracted to 8s4p3d1f1g pattern {71111111/2111/311/2/1}
 Group   2 Type F   : 12s5p4d2f1g contracted to 6s4p3d1f1g pattern {711111/2111/211/2/1}

Atom   0P    basis set group =>   1
Atom   1F    basis set group =>   2
Atom   2F    basis set group =>   2
Atom   3F    basis set group =>   2
Atom   4F    basis set group =>   2
Atom   5F    basis set group =>   2
------------------------------------------------------------------------------
                           ORCA GTO INTEGRAL CALCULATION
                           -- RI-GTO INTEGRALS CHOSEN --
------------------------------------------------------------------------------
------------------------------------------------------------------------------
                   ___                                                        
                  /   \      - P O W E R E D   B Y -                         
                 /     \                                                     
                 |  |  |   _    _      __       _____    __    __             
                 |  |  |  | |  | |    /  \     |  _  \  |  |  /  |          
                  \  \/   | |  | |   /    \    | | | |  |  | /  /          
                 / \  \   | |__| |  /  /\  \   | |_| |  |  |/  /          
                |  |  |   |  __  | /  /__\  \  |    /   |      \           
                |  |  |   | |  | | |   __   |  |    \   |  |\   \          
                \     /   | |  | | |  |  |  |  | |\  \  |  | \   \       
                 \___/    |_|  |_| |__|  |__|  |_| \__\ |__|  \__/        
                                                                              
                      - O R C A' S   B I G   F R I E N D -                    
                                      &                                       
                       - I N T E G R A L  F E E D E R -                       
                                                                              
 v1 FN, 2020, v2 2021                                                         
------------------------------------------------------------------------------


Reading SHARK input file PF5_ts_scan.SHARKINP.tmp ... ok
----------------------
SHARK INTEGRAL PACKAGE
----------------------

Number of atoms                             ...      6
Number of basis functions                   ...    192
Number of shells                            ...     68
Maximum angular momentum                    ...      3
Integral batch strategy                     ... SHARK/LIBINT Hybrid
RI-J (if used) integral strategy            ... SPLIT-RIJ (Revised 2003 algorithm where possible)
Printlevel                                  ...      1
Contraction scheme used                     ... SEGMENTED contraction
Coulomb Range Separation                    ... NOT USED
Exchange Range Separation                   ... NOT USED
Finite Nucleus Model                        ... NOT USED
Auxiliary Coulomb fitting basis             ... AVAILABLE
   # of basis functions in Aux-J            ...    296
   # of shells in Aux-J                     ...     92
   Maximum angular momentum in Aux-J        ...      4
Auxiliary J/K fitting basis                 ... NOT available
Auxiliary Correlation fitting basis         ... NOT available
Auxiliary 'external' fitting basis          ... NOT available
Integral threshold                          ...     2.500000e-11
Primitive cut-off                           ...     2.500000e-12
Primitive pair pre-selection threshold      ...     2.500000e-12

Calculating pre-screening integrals         ... done (  0.1 sec) Dimension = 68
Organizing shell pair data                  ... done (  0.0 sec)
Shell pair information
Total number of shell pairs                 ...      2346
Shell pairs after pre-screening             ...      2156
Total number of primitive shell pairs       ...      8274
Primitive shell pairs kept                  ...      5594
          la=0 lb=0:    393 shell pairs
          la=1 lb=0:    565 shell pairs
          la=1 lb=1:    209 shell pairs
          la=2 lb=0:    316 shell pairs
          la=2 lb=1:    238 shell pairs
          la=2 lb=2:     74 shell pairs
          la=3 lb=0:    152 shell pairs
          la=3 lb=1:    118 shell pairs
          la=3 lb=2:     70 shell pairs
          la=3 lb=3:     21 shell pairs

Calculating one electron integrals          ... done (  0.0 sec)
Calculating RI/J V-Matrix + Cholesky decomp.... done (  0.0 sec)
Calculating Nuclear repulsion               ... done (  0.0 sec) ENN=    409.197053762672 Eh

SHARK setup successfully completed in   0.2 seconds

Maximum memory used throughout the entire GTOINT-calculation: 51.1 MB
-------------------------------------------------------------------------------
                                 ORCA SCF
-------------------------------------------------------------------------------

------------
SCF SETTINGS
------------
Hamiltonian:
 Density Functional     Method          .... DFT(GTOs)
 Exchange Functional    Exchange        .... PBE
   PBE kappa parameter   XKappa         ....  0.804000
   PBE mue parameter    XMuePBE         ....  0.219520
 Correlation Functional Correlation     .... PBE
   PBE beta parameter  CBetaPBE         ....  0.066725
 LDA part of GGA corr.  LDAOpt          .... PW91-LDA
 Gradients option       PostSCFGGA      .... off
   Density functional embedding theory  .... OFF
   NL short-range parameter             ....  6.400000
 RI-approximation to the Coulomb term is turned on
   Number of AuxJ basis functions       .... 296


General Settings:
 Integral files         IntName         .... PF5_ts_scan
 Hartree-Fock type      HFTyp           .... RHF
 Total Charge           Charge          ....    0
 Multiplicity           Mult            ....    1
 Number of Electrons    NEL             ....   60
 Basis Dimension        Dim             ....  192
 Nuclear Repulsion      ENuc            ....    409.1970537627 Eh

Convergence Acceleration:
 DIIS                   CNVDIIS         .... on
   Start iteration      DIISMaxIt       ....    12
   Startup error        DIISStart       ....  0.200000
   # of expansion vecs  DIISMaxEq       ....     5
   Bias factor          DIISBfac        ....   1.050
   Max. coefficient     DIISMaxC        ....  10.000
 Trust-Rad. Augm. Hess. CNVTRAH         .... auto
   Auto Start mean grad. ratio tolernc. ....  1.125000
   Auto Start start iteration           ....    20
   Auto Start num. interpolation iter.  ....    10
   Max. Number of Micro iterations      ....    16
   Max. Number of Macro iterations      .... Maxiter - #DIIS iter
   Number of Davidson start vectors     ....     2
   Converg. threshold I  (grad. norm)   ....   1.000e-05
   Converg. threshold II (energy diff.) ....   1.000e-08
   Grad. Scal. Fac. for Micro threshold ....   0.100
   Minimum threshold for Micro iter.    ....   0.010
   NR start threshold (gradient norm)   ....   0.001
   Initial trust radius                 ....   0.400
   Minimum AH scaling param. (alpha)    ....   1.000
   Maximum AH scaling param. (alpha)    .... 1000.000
   Orbital update algorithm             .... Taylor
   White noise on init. David. guess    .... on
   Maximum white noise                  ....   0.010
   Quad. conv. algorithm                .... NR
 SOSCF                  CNVSOSCF        .... on
   Start iteration      SOSCFMaxIt      ....   150
   Startup grad/error   SOSCFStart      ....  0.003300
 Level Shifting         CNVShift        .... on
   Level shift para.    LevelShift      ....    0.2500
   Turn off err/grad.   ShiftErr        ....    0.0010
 Zerner damping         CNVZerner       .... off
 Static damping         CNVDamp         .... on
   Fraction old density DampFac         ....    0.7000
   Max. Damping (<1)    DampMax         ....    0.9800
   Min. Damping (>=0)   DampMin         ....    0.0000
   Turn off err/grad.   DampErr         ....    0.1000
 Fernandez-Rico         CNVRico         .... off

SCF Procedure:
 Maximum # iterations   MaxIter         ....   125
 SCF integral mode      SCFMode         .... Direct
   Integral package                     .... SHARK and LIBINT hybrid scheme
 Reset frequency        DirectResetFreq ....    20
 Integral Threshold     Thresh          ....  2.500e-11 Eh
 Primitive CutOff       TCut            ....  2.500e-12 Eh

Convergence Tolerance:
 Convergence Check Mode ConvCheckMode   .... Total+1el-Energy
 Convergence forced     ConvForced      .... 0
 Energy Change          TolE            ....  1.000e-08 Eh
 1-El. energy change                    ....  1.000e-05 Eh
 Orbital Gradient       TolG            ....  1.000e-05
 Orbital Rotation angle TolX            ....  1.000e-05
 DIIS Error             TolErr          ....  5.000e-07


Diagonalization of the overlap matrix:
Smallest eigenvalue                        ... 2.045e-03
Time for diagonalization                   ...    0.004 sec
Threshold for overlap eigenvalues          ... 1.000e-08
Number of eigenvalues below threshold      ... 0
Time for construction of square roots      ...    0.004 sec
Total time needed                          ...    0.008 sec

Time for model grid setup =    0.102 sec

------------------------------
INITIAL GUESS: MODEL POTENTIAL
------------------------------
Loading Hartree-Fock densities                     ... done
Calculating cut-offs                               ... done
Initializing the effective Hamiltonian             ... done
Setting up the integral package (SHARK)            ... done
Starting the Coulomb interaction                   ... done (   0.1 sec)
Reading the grid                                   ... done
Mapping shells                                     ... done
Starting the XC term evaluation                    ... done (   0.2 sec)
  promolecular density results
     # of electrons  =     60.000795661
     EX              =    -72.681436251
     EC              =     -2.183059424
     EX+EC           =    -74.864495675
Transforming the Hamiltonian                       ... done (   0.0 sec)
Diagonalizing the Hamiltonian                      ... done (   0.0 sec)
Back transforming the eigenvectors                 ... done (   0.0 sec)
Now organizing SCF variables                       ... done
                      ------------------
                      INITIAL GUESS DONE (   0.4 sec)
                      ------------------
-------------------
DFT GRID GENERATION
-------------------

General Integration Accuracy     IntAcc      ... 4.388
Radial Grid Type                 RadialGrid  ... OptM3 with GC (2021)
Angular Grid (max. ang.)         AngularGrid ... 4 (Lebedev-302)
Angular grid pruning method      GridPruning ... 4 (adaptive)
Weight generation scheme         WeightScheme... Becke
Basis function cutoff            BFCut       ... 1.0000e-11
Integration weight cutoff        WCut        ... 1.0000e-14
Angular grids for H and He will be reduced by one unit
Partially contracted basis set               ... off
Rotationally invariant grid construction     ... off

Total number of grid points                  ...    37924
Total number of batches                      ...      594
Average number of points per batch           ...       63
Average number of grid points per atom       ...     6321
Time for grid setup =    0.424 sec

--------------
SCF ITERATIONS
--------------
ITER       Energy         Delta-E        Max-DP      RMS-DP      [F,P]     Damp
               ***  Starting incremental Fock matrix formation  ***
  0   -840.2099729483   0.000000000000 0.15340765  0.00136339  0.1853218 0.7000
  1   -840.2818365790  -0.071863630751 0.07834259  0.00069061  0.0590715 0.7000
                               ***Turning on DIIS***
  2   -840.3018607507  -0.020024171722 0.05494367  0.00055008  0.0056589 0.0000
  3   -840.3470447192  -0.045183968454 0.03941703  0.00034429  0.0293091 0.0000
  4   -840.3512355166  -0.004190797392 0.00842762  0.00007793  0.0044010 0.0000
                      *** Initiating the SOSCF procedure ***
                           *** Shutting down DIIS ***
                      *** Re-Reading the Fockian *** 
                      *** Removing any level shift *** 
ITER      Energy       Delta-E        Grad      Rot      Max-DP    RMS-DP
  5   -840.35134736  -0.0001118478  0.000497  0.000497  0.000755  0.000022
               *** Restarting incremental Fock matrix formation ***
  6   -840.35135697  -0.0000096097  0.000285  0.000442  0.000951  0.000015
  7   -840.35135397   0.0000030014  0.000535  0.000403  0.000356  0.000010
  8   -840.35135822  -0.0000042509  0.000033  0.000053  0.000282  0.000002
  9   -840.35135821   0.0000000123  0.000049  0.000030  0.000151  0.000001
 10   -840.35135824  -0.0000000265  0.000007  0.000007  0.000025  0.000000
 11   -840.35135823   0.0000000089  0.000007  0.000003  0.000017  0.000000
                  ***Gradient check signals convergence***
              ***Rediagonalizing the Fockian in SOSCF/NRSCF***

               *****************************************************
               *                     SUCCESS                       *
               *           SCF CONVERGED AFTER  12 CYCLES          *
               *****************************************************


----------------
TOTAL SCF ENERGY
----------------

Total Energy       :         -840.35135824 Eh          -22867.12300 eV

Components:
Nuclear Repulsion  :          409.19705376 Eh           11134.81792 eV
Electronic Energy  :        -1249.54841200 Eh          -34001.94092 eV
One Electron Energy:        -1982.40849262 Eh          -53944.07755 eV
Two Electron Energy:          732.86008062 Eh           19942.13663 eV

Virial components:
Potential Energy   :        -1678.85368133 Eh          -45683.93120 eV
Kinetic Energy     :          838.50232309 Eh           22816.80820 eV
Virial Ratio       :            2.00220516


DFT components:
N(Alpha)           :       29.999990569579 electrons
N(Beta)            :       29.999990569579 electrons
N(Total)           :       59.999981139158 electrons
E(X)               :      -73.054489760479 Eh       
E(C)               :       -2.176931906045 Eh       
E(XC)              :      -75.231421666525 Eh       
DFET-embed. en.    :        0.000000000000 Eh       

---------------
SCF CONVERGENCE
---------------

  Last Energy change         ...   -1.2026e-08  Tolerance :   1.0000e-08
  Last MAX-Density change    ...    3.5816e-07  Tolerance :   1.0000e-07
  Last RMS-Density change    ...    1.1162e-08  Tolerance :   5.0000e-09
  Last Orbital Gradient      ...    2.0621e-07  Tolerance :   1.0000e-05
  Last Orbital Rotation      ...    2.6910e-07  Tolerance :   1.0000e-05

             **** THE GBW FILE WAS UPDATED (PF5_ts_scan.gbw) ****
             **** DENSITY PF5_ts_scan.scfp WAS UPDATED ****
             **** ENERGY FILE WAS UPDATED (PF5_ts_scan.en.tmp) ****
             **** THE GBW FILE WAS UPDATED (PF5_ts_scan.gbw) ****
             **** DENSITY PF5_ts_scan.scfp WAS UPDATED ****
----------------
ORBITAL ENERGIES
----------------

  NO   OCC          E(Eh)            E(eV) 
   0   2.0000     -76.544835     -2082.8909 
   1   2.0000     -24.322877      -661.8591 
   2   2.0000     -24.322860      -661.8587 
   3   2.0000     -24.322859      -661.8586 
   4   2.0000     -24.279334      -660.6743 
   5   2.0000     -24.279307      -660.6735 
   6   2.0000      -6.518880      -177.3877 
   7   2.0000      -4.737437      -128.9122 
   8   2.0000      -4.737437      -128.9122 
   9   2.0000      -4.734355      -128.8283 
  10   2.0000      -1.238450       -33.6999 
  11   2.0000      -1.175938       -31.9989 
  12   2.0000      -1.175934       -31.9988 
  13   2.0000      -1.137596       -30.9556 
  14   2.0000      -1.106269       -30.1031 
  15   2.0000      -0.647544       -17.6206 
  16   2.0000      -0.555758       -15.1230 
  17   2.0000      -0.555756       -15.1229 
  18   2.0000      -0.539990       -14.6939 
  19   2.0000      -0.480282       -13.0691 
  20   2.0000      -0.480276       -13.0690 
  21   2.0000      -0.466311       -12.6890 
  22   2.0000      -0.466310       -12.6889 
  23   2.0000      -0.446607       -12.1528 
  24   2.0000      -0.424957       -11.5637 
  25   2.0000      -0.403192       -10.9714 
  26   2.0000      -0.386967       -10.5299 
  27   2.0000      -0.386966       -10.5299 
  28   2.0000      -0.360999        -9.8233 
  29   2.0000      -0.360997        -9.8232 
  30   0.0000      -0.015755        -0.4287 
  31   0.0000       0.048582         1.3220 
  32   0.0000       0.048588         1.3222 
  33   0.0000       0.131042         3.5658 
  34   0.0000       0.171386         4.6637 
  35   0.0000       0.171392         4.6638 
  36   0.0000       0.172426         4.6919 
  37   0.0000       0.260094         7.0775 
  38   0.0000       0.342143         9.3102 
  39   0.0000       0.342146         9.3103 
  40   0.0000       0.378670        10.3041 
  41   0.0000       0.391945        10.6654 
  42   0.0000       0.391947        10.6654 
  43   0.0000       0.436864        11.8877 
  44   0.0000       0.436890        11.8884 
  45   0.0000       0.482367        13.1259 
  46   0.0000       0.491700        13.3798 
  47   0.0000       0.539011        14.6672 
  48   0.0000       0.539032        14.6678 
  49   0.0000       0.568630        15.4732 
  50   0.0000       0.628347        17.0982 
  51   0.0000       0.628355        17.0984 
  52   0.0000       0.658830        17.9277 
  53   0.0000       0.658850        17.9282 
  54   0.0000       0.708165        19.2701 
  55   0.0000       0.708185        19.2707 
  56   0.0000       0.712684        19.3931 
  57   0.0000       0.769067        20.9274 
  58   0.0000       0.859768        23.3955 
  59   0.0000       0.859778        23.3958 
  60   0.0000       0.892111        24.2756 
  61   0.0000       0.897188        24.4137 
  62   0.0000       1.025388        27.9022 
  63   0.0000       1.025407        27.9027 
  64   0.0000       1.060802        28.8659 
  65   0.0000       1.142147        31.0794 
  66   0.0000       1.142154        31.0796 
  67   0.0000       1.236152        33.6374 
  68   0.0000       1.262125        34.3442 
  69   0.0000       1.302029        35.4300 
  70   0.0000       1.302045        35.4304 
  71   0.0000       1.323159        36.0050 
  72   0.0000       1.323191        36.0059 
  73   0.0000       1.454000        39.5653 
  74   0.0000       1.746107        47.5140 
  75   0.0000       1.746114        47.5142 
  76   0.0000       1.791375        48.7458 
  77   0.0000       1.864665        50.7401 
  78   0.0000       1.864678        50.7405 
  79   0.0000       1.880441        51.1694 
  80   0.0000       1.880444        51.1695 
  81   0.0000       2.034862        55.3714 
  82   0.0000       2.050786        55.8047 
  83   0.0000       2.050789        55.8048 
  84   0.0000       2.064189        56.1694 
  85   0.0000       2.064196        56.1696 
  86   0.0000       2.138554        58.1930 
  87   0.0000       2.187824        59.5337 
  88   0.0000       2.239471        60.9391 
  89   0.0000       2.239479        60.9393 
  90   0.0000       2.337920        63.6180 
  91   0.0000       2.337932        63.6184 
  92   0.0000       2.342178        63.7339 
  93   0.0000       2.387586        64.9695 
  94   0.0000       2.506166        68.1963 
  95   0.0000       2.506184        68.1967 
  96   0.0000       2.522040        68.6282 
  97   0.0000       2.522043        68.6283 
  98   0.0000       2.554922        69.5230 
  99   0.0000       2.618332        71.2484 
 100   0.0000       2.662204        72.4423 
 101   0.0000       2.663533        72.4784 
 102   0.0000       2.663534        72.4785 
 103   0.0000       3.069459        83.5242 
 104   0.0000       3.069474        83.5246 
 105   0.0000       3.099282        84.3357 
 106   0.0000       3.099287        84.3359 
 107   0.0000       3.224095        87.7321 
 108   0.0000       3.365788        91.5878 
 109   0.0000       3.373173        91.7887 
 110   0.0000       3.373174        91.7887 
 111   0.0000       3.501175        95.2718 
 112   0.0000       3.501214        95.2729 
 113   0.0000       3.586135        97.5837 
 114   0.0000       3.624887        98.6382 
 115   0.0000       3.624891        98.6383 
 116   0.0000       3.708615       100.9166 
 117   0.0000       3.710048       100.9555 
 118   0.0000       3.832458       104.2865 
 119   0.0000       4.133502       112.4783 
 120   0.0000       4.175119       113.6108 
 121   0.0000       4.175124       113.6109 
 122   0.0000       4.848881       131.9448 
 123   0.0000       6.393859       173.9857 
 124   0.0000       6.398114       174.1015 
 125   0.0000       6.398185       174.1035 
 126   0.0000       6.610462       179.8798 
 127   0.0000       6.610542       179.8820 
 128   0.0000       6.616091       180.0330 
 129   0.0000       6.623638       180.2384 
 130   0.0000       6.623654       180.2388 
 131   0.0000       6.640877       180.7074 
 132   0.0000       6.640909       180.7083 
 133   0.0000       6.653118       181.0406 
 134   0.0000       6.654362       181.0744 
 135   0.0000       6.654398       181.0754 
 136   0.0000       6.656102       181.1218 
 137   0.0000       6.656137       181.1227 
 138   0.0000       6.658568       181.1888 
 139   0.0000       6.690461       182.0567 
 140   0.0000       6.691016       182.0718 
 141   0.0000       6.691816       182.0936 
 142   0.0000       6.697683       182.2532 
 143   0.0000       6.701406       182.3545 
 144   0.0000       6.714243       182.7039 
 145   0.0000       6.714278       182.7048 
 146   0.0000       6.737479       183.3361 
 147   0.0000       6.737536       183.3377 
 148   0.0000       6.741368       183.4419 
 149   0.0000       6.741434       183.4438 
 150   0.0000       6.782524       184.5619 
 151   0.0000       6.896543       187.6645 
 152   0.0000       6.905253       187.9015 
 153   0.0000       6.905429       187.9063 
 154   0.0000       6.947084       189.0398 
 155   0.0000       6.958741       189.3570 
 156   0.0000       6.961513       189.4324 
 157   0.0000       6.961531       189.4329 
 158   0.0000       7.855410       213.7566 
 159   0.0000       7.864726       214.0101 
 160   0.0000       7.864763       214.0111 
 161   0.0000       8.009678       217.9544 
 162   0.0000       8.062963       219.4044 
 163   0.0000       8.063061       219.4071 
 164   0.0000       8.067609       219.5308 
 165   0.0000       8.067733       219.5342 
 166   0.0000       8.178476       222.5477 
 167   0.0000       8.178673       222.5530 
 168   0.0000       8.198774       223.1000 
 169   0.0000       8.199037       223.1072 
 170   0.0000       8.244339       224.3399 
 171   0.0000       8.301648       225.8993 
 172   0.0000       8.301743       225.9019 
 173   0.0000       8.377750       227.9702 
 174   0.0000       8.436876       229.5791 
 175   0.0000       8.436956       229.5813 
 176   0.0000       8.449809       229.9310 
 177   0.0000       8.604085       234.1291 
 178   0.0000       8.622649       234.6342 
 179   0.0000       8.622667       234.6347 
 180   0.0000       8.666241       235.8204 
 181   0.0000       8.666292       235.8218 
 182   0.0000       8.756710       238.2822 
 183   0.0000       8.849746       240.8138 
 184   0.0000       8.849769       240.8145 
 185   0.0000       9.160249       249.2630 
 186   0.0000      16.200854       440.8477 
 187   0.0000      56.268811      1531.1522 
 188   0.0000      56.358992      1533.6061 
 189   0.0000      56.359004      1533.6065 
 190   0.0000      56.758694      1544.4826 
 191   0.0000      56.760455      1544.5305 

                    ********************************
                    * MULLIKEN POPULATION ANALYSIS *
                    ********************************

-----------------------
MULLIKEN ATOMIC CHARGES
-----------------------
   0 P :    0.921529
   1 F :   -0.149923
   2 F :   -0.149885
   3 F :   -0.149885
   4 F :   -0.235919
   5 F :   -0.235919
Sum of atomic charges:    0.0000000

--------------------------------
MULLIKEN REDUCED ORBITAL CHARGES
--------------------------------
  0 P s       :     4.907734  s :     4.907734
      pz      :     2.638069  p :     7.827370
      px      :     2.594666
      py      :     2.594635
      dz2     :     0.275968  d :     1.082914
      dxz     :     0.201846
      dyz     :     0.201860
      dx2y2   :     0.201619
      dxy     :     0.201622
      f0      :     0.063879  f :     0.260452
      f+1     :     0.045141
      f-1     :     0.045141
      f+2     :     0.015754
      f-2     :     0.015754
      f+3     :     0.051934
      f-3     :     0.022849
  1 F s       :     3.891697  s :     3.891697
      pz      :     1.886905  p :     5.242954
      px      :     1.819302
      py      :     1.536748
      dz2     :     0.002015  d :     0.014751
      dxz     :     0.000136
      dyz     :     0.003592
      dx2y2   :     0.004790
      dxy     :     0.004218
      f0      :     0.000054  f :     0.000520
      f+1     :     0.000013
      f-1     :     0.000115
      f+2     :     0.000077
      f-2     :     0.000006
      f+3     :     0.000125
      f-3     :     0.000130
  2 F s       :     3.891682  s :     3.891682
      pz      :     1.886908  p :     5.242932
      px      :     1.607360
      py      :     1.748664
      dz2     :     0.002015  d :     0.014750
      dxz     :     0.002728
      dyz     :     0.001000
      dx2y2   :     0.004361
      dxy     :     0.004647
      f0      :     0.000054  f :     0.000520
      f+1     :     0.000090
      f-1     :     0.000039
      f+2     :     0.000024
      f-2     :     0.000059
      f+3     :     0.000124
      f-3     :     0.000130
  3 F s       :     3.891682  s :     3.891682
      pz      :     1.886908  p :     5.242932
      px      :     1.607360
      py      :     1.748664
      dz2     :     0.002015  d :     0.014750
      dxz     :     0.002728
      dyz     :     0.001000
      dx2y2   :     0.004361
      dxy     :     0.004647
      f0      :     0.000054  f :     0.000520
      f+1     :     0.000090
      f-1     :     0.000039
      f+2     :     0.000024
      f-2     :     0.000059
      f+3     :     0.000124
      f-3     :     0.000130
  4 F s       :     3.905072  s :     3.905072
      pz      :     1.566477  p :     5.317379
      px      :     1.875454
      py      :     1.875448
      dz2     :     0.006189  d :     0.013027
      dxz     :     0.003167
      dyz     :     0.003167
      dx2y2   :     0.000252
      dxy     :     0.000252
      f0      :     0.000204  f :     0.000441
      f+1     :     0.000106
      f-1     :     0.000106
      f+2     :     0.000010
      f-2     :     0.000010
      f+3     :     0.000001
      f-3     :     0.000002
  5 F s       :     3.905072  s :     3.905072
      pz      :     1.566477  p :     5.317379
      px      :     1.875454
      py      :     1.875448
      dz2     :     0.006189  d :     0.013027
      dxz     :     0.003167
      dyz     :     0.003167
      dx2y2   :     0.000252
      dxy     :     0.000252
      f0      :     0.000204  f :     0.000441
      f+1     :     0.000106
      f-1     :     0.000106
      f+2     :     0.000010
      f-2     :     0.000010
      f+3     :     0.000001
      f-3     :     0.000002


                     *******************************
                     * LOEWDIN POPULATION ANALYSIS *
                     *******************************

----------------------
LOEWDIN ATOMIC CHARGES
----------------------
   0 P :   -0.186918
   1 F :    0.068450
   2 F :    0.068442
   3 F :    0.068442
   4 F :   -0.009209
   5 F :   -0.009209

-------------------------------
LOEWDIN REDUCED ORBITAL CHARGES
-------------------------------
  0 P s       :     4.600455  s :     4.600455
      pz      :     2.687234  p :     7.983427
      px      :     2.648097
      py      :     2.648096
      dz2     :     0.555857  d :     1.844899
      dxz     :     0.274981
      dyz     :     0.274987
      dx2y2   :     0.369537
      dxy     :     0.369537
      f0      :     0.193232  f :     0.758136
      f+1     :     0.130802
      f-1     :     0.130803
      f+2     :     0.039962
      f-2     :     0.039961
      f+3     :     0.129604
      f-3     :     0.093772
  1 F s       :     3.665435  s :     3.665435
      pz      :     1.833432  p :     5.241341
      px      :     1.761473
      py      :     1.646436
      dz2     :     0.004054  d :     0.023898
      dxz     :     0.000166
      dyz     :     0.004926
      dx2y2   :     0.010786
      dxy     :     0.003967
      f0      :     0.000075  f :     0.000876
      f+1     :     0.000012
      f-1     :     0.000202
      f+2     :     0.000124
      f-2     :     0.000012
      f+3     :     0.000148
      f-3     :     0.000303
  2 F s       :     3.665442  s :     3.665442
      pz      :     1.833439  p :     5.241342
      px      :     1.675182
      py      :     1.732721
      dz2     :     0.004054  d :     0.023898
      dxz     :     0.003736
      dyz     :     0.001356
      dx2y2   :     0.005671
      dxy     :     0.009081
      f0      :     0.000075  f :     0.000876
      f+1     :     0.000154
      f-1     :     0.000060
      f+2     :     0.000040
      f-2     :     0.000096
      f+3     :     0.000148
      f-3     :     0.000303
  3 F s       :     3.665442  s :     3.665442
      pz      :     1.833439  p :     5.241342
      px      :     1.675182
      py      :     1.732721
      dz2     :     0.004054  d :     0.023898
      dxz     :     0.003736
      dyz     :     0.001356
      dx2y2   :     0.005671
      dxy     :     0.009081
      f0      :     0.000075  f :     0.000876
      f+1     :     0.000154
      f-1     :     0.000060
      f+2     :     0.000040
      f-2     :     0.000096
      f+3     :     0.000148
      f-3     :     0.000303
  4 F s       :     3.683890  s :     3.683890
      pz      :     1.648070  p :     5.302507
      px      :     1.827220
      py      :     1.827217
      dz2     :     0.013407  d :     0.022005
      dxz     :     0.003974
      dyz     :     0.003974
      dx2y2   :     0.000325
      dxy     :     0.000325
      f0      :     0.000443  f :     0.000807
      f+1     :     0.000168
      f-1     :     0.000168
      f+2     :     0.000012
      f-2     :     0.000012
      f+3     :     0.000001
      f-3     :     0.000004
  5 F s       :     3.683890  s :     3.683890
      pz      :     1.648070  p :     5.302507
      px      :     1.827220
      py      :     1.827217
      dz2     :     0.013407  d :     0.022005
      dxz     :     0.003974
      dyz     :     0.003974
      dx2y2   :     0.000325
      dxy     :     0.000325
      f0      :     0.000443  f :     0.000807
      f+1     :     0.000168
      f-1     :     0.000168
      f+2     :     0.000012
      f-2     :     0.000012
      f+3     :     0.000001
      f-3     :     0.000004


                      *****************************
                      * MAYER POPULATION ANALYSIS *
                      *****************************

  NA   - Mulliken gross atomic population
  ZA   - Total nuclear charge
  QA   - Mulliken gross atomic charge
  VA   - Mayer's total valence
  BVA  - Mayer's bonded valence
  FA   - Mayer's free valence

  ATOM       NA         ZA         QA         VA         BVA        FA
  0 P     14.0785    15.0000     0.9215     6.1062     6.1062    -0.0000
  1 F      9.1499     9.0000    -0.1499     1.2560     1.2560     0.0000
  2 F      9.1499     9.0000    -0.1499     1.2559     1.2559    -0.0000
  3 F      9.1499     9.0000    -0.1499     1.2559     1.2559    -0.0000
  4 F      9.2359     9.0000    -0.2359     1.2069     1.2069    -0.0000
  5 F      9.2359     9.0000    -0.2359     1.2069     1.2069    -0.0000

  Mayer bond orders larger than 0.100000
B(  0-P ,  1-F ) :   1.2323 B(  0-P ,  2-F ) :   1.2323 B(  0-P ,  3-F ) :   1.2323 
B(  0-P ,  4-F ) :   1.2047 B(  0-P ,  5-F ) :   1.2047 

-------
TIMINGS
-------

Total SCF time: 0 days 0 hours 0 min 9 sec 

Total time                  ....       9.964 sec
Sum of individual times     ....       9.664 sec  ( 97.0%)

Fock matrix formation       ....       8.654 sec  ( 86.9%)
  Split-RI-J                ....       2.245 sec  ( 25.9% of F)
  XC integration            ....       6.347 sec  ( 73.3% of F)
    Basis function eval.    ....       1.978 sec  ( 31.2% of XC)
    Density eval.           ....       1.826 sec  ( 28.8% of XC)
    XC-Functional eval.     ....       0.335 sec  (  5.3% of XC)
    XC-Potential eval.      ....       1.713 sec  ( 27.0% of XC)
Diagonalization             ....       0.046 sec  (  0.5%)
Density matrix formation    ....       0.009 sec  (  0.1%)
Population analysis         ....       0.019 sec  (  0.2%)
Initial guess               ....       0.316 sec  (  3.2%)
Orbital Transformation      ....       0.000 sec  (  0.0%)
Orbital Orthonormalization  ....       0.000 sec  (  0.0%)
DIIS solution               ....       0.046 sec  (  0.5%)
SOSCF solution              ....       0.048 sec  (  0.5%)
Grid generation             ....       0.526 sec  (  5.3%)

Maximum memory used throughout the entire SCF-calculation: 63.5 MB

-------------------------   --------------------
FINAL SINGLE POINT ENERGY      -840.351358240935
-------------------------   --------------------

------------------------------------------------------------------------------
                         ORCA SCF GRADIENT CALCULATION
------------------------------------------------------------------------------

Gradient of the Kohn-Sham DFT energy:
Kohn-Sham wavefunction type      ... RKS
Hartree-Fock exchange scaling    ...    0.000
Number of operators              ...    1
Number of atoms                  ...    6
Basis set dimensions             ...  192
Integral neglect threshold       ... 2.5e-11
Integral primitive cutoff        ... 2.5e-12
SHARK Integral package           ... ON

Nuc. rep. gradient       (SHARK) ... done (  0.0 sec)
HCore & Overlap gradient (SHARK) ... done (  0.1 sec)
RI-J gradient            (SHARK) ... done (  1.2 sec)
Exchange-correlation gradient    ... done

------------------
CARTESIAN GRADIENT
------------------

WARNING: THERE ARE 8 CONSTRAINED CARTESIAN COORDINATES
   1   P   :   -0.000000001   -0.000197177    0.000000001
   2   F   :    0.000000002   -0.027113228   -0.000000001
   3   F   :   -0.023417066    0.013667928    0.000000000
   4   F   :    0.023417066    0.013667925    0.000000000
   5   F   :   -0.000000000   -0.000012724   -0.021167346
   6   F   :   -0.000000000   -0.000012723    0.021167346

Difference to translation invariance:
           :   -0.0000000000    0.0000000000    0.0000000000

Difference to rotation invariance:
           :   -0.0000000011   -0.0000000001    0.0000000013

Norm of the cartesian gradient     ...    0.0556922060
RMS gradient                       ...    0.0131267788
MAX gradient                       ...    0.0271132284

-------
TIMINGS
-------

Total SCF gradient time            ...        4.096 sec

One electron gradient       ....       0.094 sec  (  2.3%)
RI-J Coulomb gradient       ....       1.212 sec  ( 29.6%)
XC gradient                 ....       2.703 sec  ( 66.0%)

Maximum memory used throughout the entire SCFGRAD-calculation: 63.7 MB
------------------------------------------------------------------------------
                         ORCA GEOMETRY RELAXATION STEP
------------------------------------------------------------------------------

Reading the OPT-File                    .... done
Getting information on internals        .... done
Copying old internal coords+grads       .... done
Making the new internal coordinates     .... (new redundants).... done
Validating the new internal coordinates .... (new redundants).... done
Calculating the B-matrix                .... done
Calculating the G,G- and P matrices     .... done
Transforming gradient to internals      .... done
Projecting the internal gradient        .... done
Number of atoms                         ....   6
Number of internal coordinates          ....  14
Current Energy                          ....  -840.351358241 Eh
Current gradient norm                   ....     0.055692206 Eh/bohr
Maximum allowed component of the step   ....  0.300
Current trust radius                    ....  0.300
Evaluating the initial hessian          ....  (Almloef) done
Projecting the Hessian                  .... done
Forming the augmented Hessian           .... done
Diagonalizing the augmented Hessian     .... done
Last element of RFO vector              ....  0.998735769
Lowest eigenvalues of augmented Hessian:
 -0.002441090  0.571001019  0.571001019  0.571001019  0.571004963
Length of the computed step             ....  0.050331547
The final length of the internal step   ....  0.050331547
Converting the step to cartesian space:
 Initial RMS(Int)=    0.0134516719
Transforming coordinates:
 Iter   0:  RMS(Cart)=    0.0115751555 RMS(Int)=    0.0134516775
 Iter   1:  RMS(Cart)=    0.0000017146 RMS(Int)=    0.0000012337
 Iter   2:  RMS(Cart)=    0.0000000152 RMS(Int)=    0.0000000111
Imposing constraints:
 Iter   0:  RMS(Cart)=    0.0000000000 RMS(Int)=    0.0000000000
CONVERGED
done
Storing new coordinates                 .... done

                                .--------------------.
          ----------------------|Geometry convergence|-------------------------
          Item                value                   Tolerance       Converged
          ---------------------------------------------------------------------
          RMS gradient        0.0130014195            0.0001000000      NO
          MAX gradient        0.0271137375            0.0003000000      NO
          RMS step            0.0134516719            0.0020000000      NO
          MAX step            0.0262703979            0.0040000000      NO
          ........................................................
          Max(Bonds)      0.0139      Max(Angles)    0.02
          Max(Dihed)        0.00      Max(Improp)    0.00
          ---------------------------------------------------------------------

The optimization has not yet converged - more geometry cycles are needed


    ---------------------------------------------------------------------------
                         Redundant Internal Coordinates
                            (Angstroem and degrees)

        Definition                    Value    dE/dq     Step     New-Value
    ----------------------------------------------------------------------------
     1. B(F   1,P   0)                1.5340 -0.027113  0.0000    1.5340 C 
     2. B(F   2,P   0)                1.5340 -0.027114  0.0139    1.5479   
     3. B(F   3,P   0)                1.5340 -0.027114  0.0139    1.5479   
     4. B(F   4,P   0)                1.5770 -0.021167  0.0127    1.5897   
     5. B(F   5,P   0)                1.5770 -0.021167  0.0127    1.5897   
     6. A(F   2,P   0,F   3)          120.00  0.000248   -0.02    119.98   
     7. A(F   1,P   0,F   4)           90.00  0.000025   -0.00     90.00   
     8. A(F   2,P   0,F   4)           90.00 -0.000013    0.00     90.00   
     9. A(F   3,P   0,F   4)           90.00 -0.000013    0.00     90.00   
    10. A(F   1,P   0,F   5)           90.00  0.000025   -0.00     90.00   
    11. A(F   2,P   0,F   5)           90.00 -0.000013    0.00     90.00   
    12. A(F   3,P   0,F   5)           90.00 -0.000013    0.00     90.00   
    13. A(F   1,P   0,F   2)          120.00 -0.000124    0.01    120.01   
    14. A(F   1,P   0,F   3)          120.00 -0.000124    0.01    120.01   
    ----------------------------------------------------------------------------

         *************************************************************
         *                GEOMETRY OPTIMIZATION CYCLE   2            *
         *************************************************************
---------------------------------
CARTESIAN COORDINATES (ANGSTROEM)
---------------------------------
  P      0.000000    0.002387   -0.000000
  F     -0.000000    1.536387    0.000000
  F      1.340377   -0.771845   -0.000000
  F     -1.340377   -0.771845   -0.000000
  F      0.000000    0.002457    1.589704
  F      0.000000    0.002457   -1.589704

----------------------------
CARTESIAN COORDINATES (A.U.)
----------------------------
  NO LB      ZA    FRAG     MASS         X           Y           Z
   0 P    15.0000    0    30.974    0.000000    0.004511   -0.000000
   1 F     9.0000    0    18.998   -0.000000    2.903351    0.000000
   2 F     9.0000    0    18.998    2.532945   -1.458575   -0.000000
   3 F     9.0000    0    18.998   -2.532945   -1.458575   -0.000000
   4 F     9.0000    0    18.998    0.000000    0.004644    3.004106
   5 F     9.0000    0    18.998    0.000000    0.004644   -3.004106

--------------------------------
INTERNAL COORDINATES (ANGSTROEM)
--------------------------------
 P      0   0   0     0.000000000000     0.00000000     0.00000000
 F      1   0   0     1.534000000299     0.00000000     0.00000000
 F      1   2   0     1.547916444779   120.01170998     0.00000000
 F      1   2   3     1.547916443640   120.01170929   179.99999915
 F      1   2   3     1.589704259631    89.99747452    89.99999990
 F      1   2   3     1.589704259162    89.99747478   270.00000001

---------------------------
INTERNAL COORDINATES (A.U.)
---------------------------
 P      0   0   0     0.000000000000     0.00000000     0.00000000
 F      1   0   0     2.898839890000     0.00000000     0.00000000
 F      1   2   0     2.925138158826   120.01170998     0.00000000
 F      1   2   3     2.925138156672   120.01170929   179.99999915
 F      1   2   3     3.004105684631    89.99747452    89.99999990
 F      1   2   3     3.004105683744    89.99747478   270.00000001

------------------------------------------------------------------------------
                   ___                                                        
                  /   \      - P O W E R E D   B Y -                         
                 /     \                                                     
                 |  |  |   _    _      __       _____    __    __             
                 |  |  |  | |  | |    /  \     |  _  \  |  |  /  |          
                  \  \/   | |  | |   /    \    | | | |  |  | /  /          
                 / \  \   | |__| |  /  /\  \   | |_| |  |  |/  /          
                |  |  |   |  __  | /  /__\  \  |    /   |      \           
                |  |  |   | |  | | |   __   |  |    \   |  |\   \          
                \     /   | |  | | |  |  |  |  | |\  \  |  | \   \       
                 \___/    |_|  |_| |__|  |__|  |_| \__\ |__|  \__/        
                                                                              
                      - O R C A' S   B I G   F R I E N D -                    
                                      &                                       
                       - I N T E G R A L  F E E D E R -                       
                                                                              
 v1 FN, 2020, v2 2021                                                         
------------------------------------------------------------------------------


Reading SHARK input file PF5_ts_scan.SHARKINP.tmp ... ok
----------------------
SHARK INTEGRAL PACKAGE
----------------------

Number of atoms                             ...      6
Number of basis functions                   ...    192
Number of shells                            ...     68
Maximum angular momentum                    ...      3
Integral batch strategy                     ... SHARK/LIBINT Hybrid
RI-J (if used) integral strategy            ... SPLIT-RIJ (Revised 2003 algorithm where possible)
Printlevel                                  ...      1
Contraction scheme used                     ... SEGMENTED contraction
Coulomb Range Separation                    ... NOT USED
Exchange Range Separation                   ... NOT USED
Finite Nucleus Model                        ... NOT USED
Auxiliary Coulomb fitting basis             ... AVAILABLE
   # of basis functions in Aux-J            ...    296
   # of shells in Aux-J                     ...     92
   Maximum angular momentum in Aux-J        ...      4
Auxiliary J/K fitting basis                 ... NOT available
Auxiliary Correlation fitting basis         ... NOT available
Auxiliary 'external' fitting basis          ... NOT available
Integral threshold                          ...     2.500000e-11
Primitive cut-off                           ...     2.500000e-12
Primitive pair pre-selection threshold      ...     2.500000e-12

Calculating pre-screening integrals         ... done (  0.0 sec) Dimension = 68
Organizing shell pair data                  ... done (  0.0 sec)
Shell pair information
Total number of shell pairs                 ...      2346
Shell pairs after pre-screening             ...      2142
Total number of primitive shell pairs       ...      8274
Primitive shell pairs kept                  ...      5518
          la=0 lb=0:    379 shell pairs
          la=1 lb=0:    565 shell pairs
          la=1 lb=1:    209 shell pairs
          la=2 lb=0:    316 shell pairs
          la=2 lb=1:    238 shell pairs
          la=2 lb=2:     74 shell pairs
          la=3 lb=0:    152 shell pairs
          la=3 lb=1:    118 shell pairs
          la=3 lb=2:     70 shell pairs
          la=3 lb=3:     21 shell pairs

Calculating one electron integrals          ... done (  0.0 sec)
Calculating RI/J V-Matrix + Cholesky decomp.... done (  0.0 sec)
Calculating Nuclear repulsion               ... done (  0.0 sec) ENN=    406.416129421007 Eh

SHARK setup successfully completed in   0.2 seconds

Maximum memory used throughout the entire GTOINT-calculation: 51.1 MB

Diagonalization of the overlap matrix:
Smallest eigenvalue                        ... 2.105e-03
Time for diagonalization                   ...    0.005 sec
Threshold for overlap eigenvalues          ... 1.000e-08
Number of eigenvalues below threshold      ... 0
Time for construction of square roots      ...    0.003 sec
Total time needed                          ...    0.008 sec

-------------------
DFT GRID GENERATION
-------------------

General Integration Accuracy     IntAcc      ... 4.388
Radial Grid Type                 RadialGrid  ... OptM3 with GC (2021)
Angular Grid (max. ang.)         AngularGrid ... 4 (Lebedev-302)
Angular grid pruning method      GridPruning ... 4 (adaptive)
Weight generation scheme         WeightScheme... Becke
Basis function cutoff            BFCut       ... 1.0000e-11
Integration weight cutoff        WCut        ... 1.0000e-14
Angular grids for H and He will be reduced by one unit
Partially contracted basis set               ... off
Rotationally invariant grid construction     ... off

Total number of grid points                  ...    37928
Total number of batches                      ...      595
Average number of points per batch           ...       63
Average number of grid points per atom       ...     6321
Time for grid setup =    0.371 sec

--------------
SCF ITERATIONS
--------------
ITER       Energy         Delta-E        Max-DP      RMS-DP      [F,P]     Damp
               ***  Starting incremental Fock matrix formation  ***
  0   -840.3529715635   0.000000000000 0.00124744  0.00003378  0.0046782 0.7000
                      *** Initiating the SOSCF procedure ***
                      *** Re-Reading the Fockian *** 
                      *** Removing any level shift *** 
ITER      Energy       Delta-E        Grad      Rot      Max-DP    RMS-DP
  1   -840.35304697  -0.0000754018  0.001070  0.001070  0.004604  0.000099
               *** Restarting incremental Fock matrix formation ***
  2   -840.35320872  -0.0001617548  0.000630  0.000980  0.001100  0.000034
  3   -840.35320037   0.0000083493  0.000903  0.000663  0.000716  0.000019
  4   -840.35321596  -0.0000155935  0.000125  0.000197  0.000862  0.000010
  5   -840.35321583   0.0000001367  0.000174  0.000103  0.000310  0.000005
  6   -840.35321648  -0.0000006554  0.000034  0.000063  0.000279  0.000002
  7   -840.35321646   0.0000000277  0.000060  0.000042  0.000188  0.000002
  8   -840.35321651  -0.0000000513  0.000003  0.000003  0.000004  0.000000
                 **** Energy Check signals convergence ****
              ***Rediagonalizing the Fockian in SOSCF/NRSCF***

               *****************************************************
               *                     SUCCESS                       *
               *           SCF CONVERGED AFTER   9 CYCLES          *
               *****************************************************

Total Energy       :         -840.35321651 Eh          -22867.17357 eV
  Last Energy change         ...   -5.3584e-09  Tolerance :   1.0000e-08
  Last MAX-Density change    ...    1.8182e-06  Tolerance :   1.0000e-07
             **** THE GBW FILE WAS UPDATED (PF5_ts_scan.gbw) ****
             **** DENSITY PF5_ts_scan.scfp WAS UPDATED ****
             **** ENERGY FILE WAS UPDATED (PF5_ts_scan.en.tmp) ****
             **** THE GBW FILE WAS UPDATED (PF5_ts_scan.gbw) ****
             **** DENSITY PF5_ts_scan.scfp WAS UPDATED ****
Total SCF time: 0 days 0 hours 0 min 6 sec 

Maximum memory used throughout the entire SCF-calculation: 63.2 MB

-------------------------   --------------------
FINAL SINGLE POINT ENERGY      -840.353216511799
-------------------------   --------------------

------------------------------------------------------------------------------
                         ORCA SCF GRADIENT CALCULATION
------------------------------------------------------------------------------

Gradient of the Kohn-Sham DFT energy:
Kohn-Sham wavefunction type      ... RKS
Hartree-Fock exchange scaling    ...    0.000
Number of operators              ...    1
Number of atoms                  ...    6
Basis set dimensions             ...  192
Integral neglect threshold       ... 2.5e-11
Integral primitive cutoff        ... 2.5e-12
SHARK Integral package           ... ON

Nuc. rep. gradient       (SHARK) ... done (  0.0 sec)
HCore & Overlap gradient (SHARK) ... done (  0.1 sec)
RI-J gradient            (SHARK) ... done (  1.4 sec)
Exchange-correlation gradient    ... done

------------------
CARTESIAN GRADIENT
------------------

WARNING: THERE ARE 8 CONSTRAINED CARTESIAN COORDINATES
   1   P   :   -0.000000000    0.009144988    0.000000001
   2   F   :    0.000000001   -0.025445909    0.000000001
   3   F   :   -0.012471457    0.007386810   -0.000000001
   4   F   :    0.012471456    0.007386807   -0.000000002
   5   F   :    0.000000000    0.000763653   -0.011029483
   6   F   :   -0.000000000    0.000763651    0.011029484

Difference to translation invariance:
           :    0.0000000000   -0.0000000000   -0.0000000000

Difference to rotation invariance:
           :   -0.0000000014   -0.0000000009    0.0000000007

Norm of the cartesian gradient     ...    0.0373603370
RMS gradient                       ...    0.0088059159
MAX gradient                       ...    0.0254459089

-------
TIMINGS
-------

Total SCF gradient time            ...        3.878 sec

One electron gradient       ....       0.095 sec  (  2.4%)
RI-J Coulomb gradient       ....       1.423 sec  ( 36.7%)
XC gradient                 ....       2.273 sec  ( 58.6%)

Maximum memory used throughout the entire SCFGRAD-calculation: 62.4 MB
------------------------------------------------------------------------------
                         ORCA GEOMETRY RELAXATION STEP
------------------------------------------------------------------------------

Reading the OPT-File                    .... done
Getting information on internals        .... done
Copying old internal coords+grads       .... done
Making the new internal coordinates     .... (new redundants).... done
Validating the new internal coordinates .... (new redundants).... done
Calculating the B-matrix                .... done
Calculating the G,G- and P matrices     .... done
Transforming gradient to internals      .... done
Projecting the internal gradient        .... done
Number of atoms                         ....   6
Number of internal coordinates          ....  14
Current Energy                          ....  -840.353216512 Eh
Current gradient norm                   ....     0.037360337 Eh/bohr
Maximum allowed component of the step   ....  0.300
Current trust radius                    ....  0.300
Updating the Hessian (BFGS)             .... done
Forming the augmented Hessian           .... done
Diagonalizing the augmented Hessian     .... done
Last element of RFO vector              ....  0.998305476
Lowest eigenvalues of augmented Hessian:
 -0.001501664  0.434303584  0.571001019  0.571001019  0.571001019
Length of the computed step             ....  0.058289643
The final length of the internal step   ....  0.058289643
Converting the step to cartesian space:
 Initial RMS(Int)=    0.0155785624
Transforming coordinates:
 Iter   0:  RMS(Cart)=    0.0131893932 RMS(Int)=    0.0155866526
 Iter   1:  RMS(Cart)=    0.0000413535 RMS(Int)=    0.0000288238
 Iter   2:  RMS(Cart)=    0.0000003658 RMS(Int)=    0.0000003443
 Iter   3:  RMS(Cart)=    0.0000000019 RMS(Int)=    0.0000000021
Imposing constraints:
 Iter   0:  RMS(Cart)=    0.0000000000 RMS(Int)=    0.0000000000
CONVERGED
done
Storing new coordinates                 .... done
The predicted energy change is          ....    -0.000753383
Previously predicted energy change      ....    -0.001223637
Actually observed energy change         ....    -0.001858271
Ratio of predicted to observed change   ....     1.518645605
New trust radius                        ....     0.200000000

                                .--------------------.
          ----------------------|Geometry convergence|-------------------------
          Item                value                   Tolerance       Converged
          ---------------------------------------------------------------------
          Energy change      -0.0018582709            0.0000050000      NO
          RMS gradient        0.0069210825            0.0001000000      NO
          MAX gradient        0.0144940365            0.0003000000      NO
          RMS step            0.0155785624            0.0020000000      NO
          MAX step            0.0303268596            0.0040000000      NO
          ........................................................
          Max(Bonds)      0.0160      Max(Angles)    0.32
          Max(Dihed)        0.00      Max(Improp)    0.00
          ---------------------------------------------------------------------

The optimization has not yet converged - more geometry cycles are needed


    ---------------------------------------------------------------------------
                         Redundant Internal Coordinates
                            (Angstroem and degrees)

        Definition                    Value    dE/dq     Step     New-Value
    ----------------------------------------------------------------------------
     1. B(F   1,P   0)                1.5340 -0.025446 -0.0000    1.5340 C 
     2. B(F   2,P   0)                1.5479 -0.014494  0.0160    1.5640   
     3. B(F   3,P   0)                1.5479 -0.014494  0.0160    1.5640   
     4. B(F   4,P   0)                1.5897 -0.011029  0.0143    1.6040   
     5. B(F   5,P   0)                1.5897 -0.011029  0.0143    1.6040   
     6. A(F   2,P   0,F   3)          119.98  0.000309   -0.06    119.91   
     7. A(F   1,P   0,F   4)           90.00 -0.001530    0.32     90.32   
     8. A(F   2,P   0,F   4)           90.00  0.000765   -0.16     89.84   
     9. A(F   3,P   0,F   4)           90.00  0.000765   -0.16     89.84   
    10. A(F   1,P   0,F   5)           90.00 -0.001530    0.32     90.32   
    11. A(F   2,P   0,F   5)           90.00  0.000765   -0.16     89.84   
    12. A(F   3,P   0,F   5)           90.00  0.000765   -0.16     89.84   
    13. A(F   1,P   0,F   2)          120.01 -0.000155    0.03    120.04   
    14. A(F   1,P   0,F   3)          120.01 -0.000155    0.03    120.04   
    ----------------------------------------------------------------------------

         *************************************************************
         *                GEOMETRY OPTIMIZATION CYCLE   3            *
         *************************************************************
---------------------------------
CARTESIAN COORDINATES (ANGSTROEM)
---------------------------------
  P      0.000000    0.008341   -0.000000
  F     -0.000000    1.542341   -0.000000
  F      1.353836   -0.774675    0.000000
  F     -1.353836   -0.774675    0.000000
  F      0.000000   -0.000667    1.603977
  F      0.000000   -0.000667   -1.603977

----------------------------
CARTESIAN COORDINATES (A.U.)
----------------------------
  NO LB      ZA    FRAG     MASS         X           Y           Z
   0 P    15.0000    0    30.974    0.000000    0.015763   -0.000000
   1 F     9.0000    0    18.998   -0.000000    2.914603   -0.000000
   2 F     9.0000    0    18.998    2.558379   -1.463923    0.000000
   3 F     9.0000    0    18.998   -2.558379   -1.463923    0.000000
   4 F     9.0000    0    18.998    0.000000   -0.001260    3.031078
   5 F     9.0000    0    18.998    0.000000   -0.001260   -3.031078

--------------------------------
INTERNAL COORDINATES (ANGSTROEM)
--------------------------------
 P      0   0   0     0.000000000000     0.00000000     0.00000000
 F      1   0   0     1.534000000299     0.00000000     0.00000000
 F      1   2   0     1.563964727674   120.04373232     0.00000000
 F      1   2   3     1.563964724160   120.04373080   179.99999915
 F      1   2   3     1.604002699170    90.32177813    89.99999962
 F      1   2   3     1.604002700200    90.32177796   269.99999972

---------------------------
INTERNAL COORDINATES (A.U.)
---------------------------
 P      0   0   0     0.000000000000     0.00000000     0.00000000
 F      1   0   0     2.898839890000     0.00000000     0.00000000
 F      1   2   0     2.955465018417   120.04373232     0.00000000
 F      1   2   3     2.955465011775   120.04373080   179.99999915
 F      1   2   3     3.031125819501    90.32177813    89.99999962
 F      1   2   3     3.031125821448    90.32177796   269.99999972

------------------------------------------------------------------------------
                   ___                                                        
                  /   \      - P O W E R E D   B Y -                         
                 /     \                                                     
                 |  |  |   _    _      __       _____    __    __             
                 |  |  |  | |  | |    /  \     |  _  \  |  |  /  |          
                  \  \/   | |  | |   /    \    | | | |  |  | /  /          
                 / \  \   | |__| |  /  /\  \   | |_| |  |  |/  /          
                |  |  |   |  __  | /  /__\  \  |    /   |      \           
                |  |  |   | |  | | |   __   |  |    \   |  |\   \          
                \     /   | |  | | |  |  |  |  | |\  \  |  | \   \       
                 \___/    |_|  |_| |__|  |__|  |_| \__\ |__|  \__/        
                                                                              
                      - O R C A' S   B I G   F R I E N D -                    
                                      &                                       
                       - I N T E G R A L  F E E D E R -                       
                                                                              
 v1 FN, 2020, v2 2021                                                         
------------------------------------------------------------------------------


Reading SHARK input file PF5_ts_scan.SHARKINP.tmp ... ok
----------------------
SHARK INTEGRAL PACKAGE
----------------------

Number of atoms                             ...      6
Number of basis functions                   ...    192
Number of shells                            ...     68
Maximum angular momentum                    ...      3
Integral batch strategy                     ... SHARK/LIBINT Hybrid
RI-J (if used) integral strategy            ... SPLIT-RIJ (Revised 2003 algorithm where possible)
Printlevel                                  ...      1
Contraction scheme used                     ... SEGMENTED contraction
Coulomb Range Separation                    ... NOT USED
Exchange Range Separation                   ... NOT USED
Finite Nucleus Model                        ... NOT USED
Auxiliary Coulomb fitting basis             ... AVAILABLE
   # of basis functions in Aux-J            ...    296
   # of shells in Aux-J                     ...     92
   Maximum angular momentum in Aux-J        ...      4
Auxiliary J/K fitting basis                 ... NOT available
Auxiliary Correlation fitting basis         ... NOT available
Auxiliary 'external' fitting basis          ... NOT available
Integral threshold                          ...     2.500000e-11
Primitive cut-off                           ...     2.500000e-12
Primitive pair pre-selection threshold      ...     2.500000e-12

Calculating pre-screening integrals         ... done (  0.1 sec) Dimension = 68
Organizing shell pair data                  ... done (  0.0 sec)
Shell pair information
Total number of shell pairs                 ...      2346
Shell pairs after pre-screening             ...      2142
[...]
  46   0.0000       0.489240        13.3129 
  47   0.0000       0.535502        14.5718 
  48   0.0000       0.536665        14.6034 
  49   0.0000       0.565588        15.3904 
  50   0.0000       0.598985        16.2992 
  51   0.0000       0.602576        16.3969 
  52   0.0000       0.657024        17.8785 
  53   0.0000       0.658091        17.9076 
  54   0.0000       0.696024        18.9398 
  55   0.0000       0.696707        18.9584 
  56   0.0000       0.701943        19.1008 
  57   0.0000       0.763386        20.7728 
  58   0.0000       0.860604        23.4182 
  59   0.0000       0.860742        23.4220 
  60   0.0000       0.868738        23.6396 
  61   0.0000       0.896829        24.4040 
  62   0.0000       1.026581        27.9347 
  63   0.0000       1.028334        27.9824 
  64   0.0000       1.061117        28.8745 
  65   0.0000       1.139603        31.0102 
  66   0.0000       1.141152        31.0523 
  67   0.0000       1.231169        33.5018 
  68   0.0000       1.232495        33.5379 
  69   0.0000       1.283017        34.9127 
  70   0.0000       1.284021        34.9400 
  71   0.0000       1.305904        35.5355 
  72   0.0000       1.308095        35.5951 
  73   0.0000       1.431436        38.9514 
  74   0.0000       1.739916        47.3455 
  75   0.0000       1.740496        47.3613 
  76   0.0000       1.796689        48.8904 
  77   0.0000       1.857235        50.5379 
  78   0.0000       1.858389        50.5693 
  79   0.0000       1.874398        51.0050 
  80   0.0000       1.876269        51.0559 
  81   0.0000       2.017411        54.8965 
  82   0.0000       2.017898        54.9098 
  83   0.0000       2.018327        54.9215 
  84   0.0000       2.048763        55.7497 
  85   0.0000       2.050240        55.7899 
  86   0.0000       2.122793        57.7641 
  87   0.0000       2.151709        58.5510 
  88   0.0000       2.210230        60.1434 
  89   0.0000       2.210398        60.1480 
  90   0.0000       2.306459        62.7619 
  91   0.0000       2.308715        62.8233 
  92   0.0000       2.309873        62.8549 
  93   0.0000       2.365777        64.3761 
  94   0.0000       2.466946        67.1290 
  95   0.0000       2.471969        67.2657 
  96   0.0000       2.512516        68.3690 
  97   0.0000       2.512815        68.3772 
  98   0.0000       2.522947        68.6529 
  99   0.0000       2.612856        71.0994 
 100   0.0000       2.638236        71.7901 
 101   0.0000       2.638323        71.7924 
 102   0.0000       2.640886        71.8622 
 103   0.0000       3.065718        83.4224 
 104   0.0000       3.066667        83.4482 
 105   0.0000       3.081735        83.8583 
 106   0.0000       3.082115        83.8686 
 107   0.0000       3.218393        87.5769 
 108   0.0000       3.335440        90.7619 
 109   0.0000       3.336612        90.7938 
 110   0.0000       3.338051        90.8330 
 111   0.0000       3.446216        93.7763 
 112   0.0000       3.451521        93.9207 
 113   0.0000       3.500413        95.2511 
 114   0.0000       3.620617        98.5220 
 115   0.0000       3.620641        98.5226 
 116   0.0000       3.682525       100.2066 
 117   0.0000       3.701381       100.7197 
 118   0.0000       3.799515       103.3901 
 119   0.0000       4.080843       111.0454 
 120   0.0000       4.091341       111.3310 
 121   0.0000       4.139813       112.6501 
 122   0.0000       4.815585       131.0387 
 123   0.0000       6.370510       173.3504 
 124   0.0000       6.381072       173.6378 
 125   0.0000       6.385417       173.7560 
 126   0.0000       6.616346       180.0399 
 127   0.0000       6.617737       180.0778 
 128   0.0000       6.623011       180.2213 
 129   0.0000       6.627587       180.3458 
 130   0.0000       6.630175       180.4162 
 131   0.0000       6.643865       180.7887 
 132   0.0000       6.645455       180.8320 
 133   0.0000       6.656618       181.1358 
 134   0.0000       6.657153       181.1503 
 135   0.0000       6.658787       181.1948 
 136   0.0000       6.660445       181.2399 
 137   0.0000       6.661014       181.2554 
 138   0.0000       6.664836       181.3594 
 139   0.0000       6.690456       182.0566 
 140   0.0000       6.690518       182.0583 
 141   0.0000       6.693414       182.1371 
 142   0.0000       6.696744       182.2277 
 143   0.0000       6.699453       182.3014 
 144   0.0000       6.703719       182.4175 
 145   0.0000       6.704008       182.4253 
 146   0.0000       6.718539       182.8208 
 147   0.0000       6.718796       182.8277 
 148   0.0000       6.725540       183.0113 
 149   0.0000       6.726129       183.0273 
 150   0.0000       6.764896       184.0822 
 151   0.0000       6.871856       186.9927 
 152   0.0000       6.875209       187.0839 
 153   0.0000       6.875941       187.1039 
 154   0.0000       6.922236       188.3636 
 155   0.0000       6.932436       188.6412 
 156   0.0000       6.933945       188.6822 
 157   0.0000       6.935832       188.7336 
 158   0.0000       7.776134       211.5994 
 159   0.0000       7.778447       211.6623 
 160   0.0000       7.790848       211.9998 
 161   0.0000       8.012260       218.0247 
 162   0.0000       8.055376       219.1979 
 163   0.0000       8.055842       219.2106 
 164   0.0000       8.059794       219.3182 
 165   0.0000       8.060917       219.3487 
 166   0.0000       8.156687       221.9547 
 167   0.0000       8.156858       221.9594 
 168   0.0000       8.177060       222.5091 
 169   0.0000       8.177325       222.5163 
 170   0.0000       8.221590       223.7208 
 171   0.0000       8.269628       225.0280 
 172   0.0000       8.270328       225.0471 
 173   0.0000       8.351492       227.2557 
 174   0.0000       8.400418       228.5870 
 175   0.0000       8.408059       228.7949 
 176   0.0000       8.411123       228.8783 
 177   0.0000       8.579555       233.4616 
 178   0.0000       8.580357       233.4834 
 179   0.0000       8.593586       233.8434 
 180   0.0000       8.639508       235.0930 
 181   0.0000       8.643105       235.1908 
 182   0.0000       8.678467       236.1531 
 183   0.0000       8.786089       239.0816 
 184   0.0000       8.795138       239.3279 
 185   0.0000       9.114085       248.0069 
 186   0.0000      15.771570       429.1662 
 187   0.0000      56.244153      1530.4812 
 188   0.0000      56.310864      1532.2965 
 189   0.0000      56.316460      1532.4488 
 190   0.0000      56.707463      1543.0885 
 191   0.0000      56.715524      1543.3079 

                    ********************************
                    * MULLIKEN POPULATION ANALYSIS *
                    ********************************

-----------------------
MULLIKEN ATOMIC CHARGES
-----------------------
   0 P :    0.952856
   1 F :   -0.166089
   2 F :   -0.159301
   3 F :   -0.159301
   4 F :   -0.234082
   5 F :   -0.234082
Sum of atomic charges:    0.0000000

--------------------------------
MULLIKEN REDUCED ORBITAL CHARGES
--------------------------------
  0 P s       :     4.936743  s :     4.936743
      pz      :     2.640896  p :     7.839475
      px      :     2.598291
      py      :     2.600288
      dz2     :     0.264755  d :     1.030654
      dxz     :     0.192318
      dyz     :     0.191375
      dx2y2   :     0.191406
      dxy     :     0.190801
      f0      :     0.059020  f :     0.240272
      f+1     :     0.042119
      f-1     :     0.042145
      f+2     :     0.014229
      f-2     :     0.014569
      f+3     :     0.046619
      f-3     :     0.021571
  1 F s       :     3.901764  s :     3.901764
      pz      :     1.894905  p :     5.250400
      px      :     1.830233
      py      :     1.525262
      dz2     :     0.001889  d :     0.013466
      dxz     :     0.000107
      dyz     :     0.003140
      dx2y2   :     0.004605
      dxy     :     0.003726
      f0      :     0.000047  f :     0.000460
      f+1     :     0.000011
      f-1     :     0.000103
      f+2     :     0.000066
      f-2     :     0.000004
      f+3     :     0.000107
      f-3     :     0.000120
  2 F s       :     3.899493  s :     3.899493
      pz      :     1.891926  p :     5.245518
      px      :     1.601846
      py      :     1.751746
      dz2     :     0.001917  d :     0.013815
      dxz     :     0.002470
      dyz     :     0.000899
      dx2y2   :     0.004063
      dxy     :     0.004466
      f0      :     0.000049  f :     0.000475
      f+1     :     0.000082
      f-1     :     0.000035
      f+2     :     0.000021
      f-2     :     0.000053
      f+3     :     0.000112
      f-3     :     0.000123
  3 F s       :     3.899493  s :     3.899493
      pz      :     1.891926  p :     5.245518
      px      :     1.601846
      py      :     1.751746
      dz2     :     0.001917  d :     0.013815
      dxz     :     0.002470
      dyz     :     0.000899
      dx2y2   :     0.004063
      dxy     :     0.004466
      f0      :     0.000049  f :     0.000475
      f+1     :     0.000082
      f-1     :     0.000035
      f+2     :     0.000021
      f-2     :     0.000053
      f+3     :     0.000112
      f-3     :     0.000123
  4 F s       :     3.910898  s :     3.910898
      pz      :     1.553621  p :     5.310433
      px      :     1.878457
      py      :     1.878355
      dz2     :     0.006030  d :     0.012339
      dxz     :     0.002943
      dyz     :     0.002943
      dx2y2   :     0.000212
      dxy     :     0.000211
      f0      :     0.000196  f :     0.000412
      f+1     :     0.000099
      f-1     :     0.000099
      f+2     :     0.000008
      f-2     :     0.000008
      f+3     :     0.000001
      f-3     :     0.000002
  5 F s       :     3.910898  s :     3.910898
      pz      :     1.553621  p :     5.310433
      px      :     1.878457
      py      :     1.878355
      dz2     :     0.006030  d :     0.012339
      dxz     :     0.002943
      dyz     :     0.002943
      dx2y2   :     0.000212
      dxy     :     0.000211
      f0      :     0.000196  f :     0.000412
      f+1     :     0.000099
      f-1     :     0.000099
      f+2     :     0.000008
      f-2     :     0.000008
      f+3     :     0.000001
      f-3     :     0.000002


                     *******************************
                     * LOEWDIN POPULATION ANALYSIS *
                     *******************************

----------------------
LOEWDIN ATOMIC CHARGES
----------------------
   0 P :   -0.058772
   1 F :    0.028605
   2 F :    0.040414
   3 F :    0.040414
   4 F :   -0.025330
   5 F :   -0.025330

-------------------------------
LOEWDIN REDUCED ORBITAL CHARGES
-------------------------------
  0 P s       :     4.635005  s :     4.635005
      pz      :     2.684118  p :     7.972593
      px      :     2.644344
      py      :     2.644131
      dz2     :     0.534835  d :     1.758075
      dxz     :     0.262823
      dyz     :     0.261405
      dx2y2   :     0.349407
      dxy     :     0.349605
      f0      :     0.178098  f :     0.693098
      f+1     :     0.120676
      f-1     :     0.120475
      f+2     :     0.034977
      f-2     :     0.036075
      f+3     :     0.114161
      f-3     :     0.088635
  1 F s       :     3.692504  s :     3.692504
      pz      :     1.847475  p :     5.256263
      px      :     1.778737
      py      :     1.630051
      dz2     :     0.003827  d :     0.021854
      dxz     :     0.000127
      dyz     :     0.004135
      dx2y2   :     0.010335
      dxy     :     0.003431
      f0      :     0.000062  f :     0.000773
      f+1     :     0.000010
      f-1     :     0.000185
      f+2     :     0.000103
      f-2     :     0.000008
      f+3     :     0.000123
      f-3     :     0.000281
  2 F s       :     3.685952  s :     3.685952
      pz      :     1.842908  p :     5.250427
      px      :     1.668712
      py      :     1.738807
      dz2     :     0.003899  d :     0.022409
      dxz     :     0.003260
      dyz     :     0.001179
      dx2y2   :     0.005286
      dxy     :     0.008784
      f0      :     0.000065  f :     0.000799
      f+1     :     0.000145
      f-1     :     0.000056
      f+2     :     0.000033
      f-2     :     0.000083
      f+3     :     0.000128
      f-3     :     0.000288
  3 F s       :     3.685952  s :     3.685952
      pz      :     1.842908  p :     5.250427
      px      :     1.668712
      py      :     1.738807
      dz2     :     0.003899  d :     0.022409
      dxz     :     0.003260
      dyz     :     0.001179
      dx2y2   :     0.005286
      dxy     :     0.008784
      f0      :     0.000065  f :     0.000799
      f+1     :     0.000145
      f-1     :     0.000056
      f+2     :     0.000033
      f-2     :     0.000083
      f+3     :     0.000128
      f-3     :     0.000288
  4 F s       :     3.700225  s :     3.700225
      pz      :     1.636492  p :     5.303442
      px      :     1.833496
      py      :     1.833455
      dz2     :     0.013166  d :     0.020911
      dxz     :     0.003588
      dyz     :     0.003600
      dx2y2   :     0.000279
      dxy     :     0.000278
      f0      :     0.000430  f :     0.000752
      f+1     :     0.000149
      f-1     :     0.000149
      f+2     :     0.000010
      f-2     :     0.000010
      f+3     :     0.000001
      f-3     :     0.000003
  5 F s       :     3.700225  s :     3.700225
      pz      :     1.636492  p :     5.303442
      px      :     1.833496
      py      :     1.833455
      dz2     :     0.013166  d :     0.020911
      dxz     :     0.003588
      dyz     :     0.003600
      dx2y2   :     0.000279
      dxy     :     0.000278
      f0      :     0.000430  f :     0.000752
      f+1     :     0.000149
      f-1     :     0.000149
      f+2     :     0.000010
      f-2     :     0.000010
      f+3     :     0.000001
      f-3     :     0.000003


                      *****************************
                      * MAYER POPULATION ANALYSIS *
                      *****************************

  NA   - Mulliken gross atomic population
  ZA   - Total nuclear charge
  QA   - Mulliken gross atomic charge
  VA   - Mayer's total valence
  BVA  - Mayer's bonded valence
  FA   - Mayer's free valence

  ATOM       NA         ZA         QA         VA         BVA        FA
  0 P     14.0471    15.0000     0.9529     5.9898     5.9898     0.0000
  1 F      9.1661     9.0000    -0.1661     1.2386     1.2386    -0.0000
  2 F      9.1593     9.0000    -0.1593     1.2481     1.2481     0.0000
  3 F      9.1593     9.0000    -0.1593     1.2481     1.2481     0.0000
  4 F      9.2341     9.0000    -0.2341     1.2057     1.2057     0.0000
  5 F      9.2341     9.0000    -0.2341     1.2057     1.2057     0.0000

  Mayer bond orders larger than 0.100000
B(  0-P ,  1-F ) :   1.1987 B(  0-P ,  2-F ) :   1.2097 B(  0-P ,  3-F ) :   1.2097 
B(  0-P ,  4-F ) :   1.1859 B(  0-P ,  5-F ) :   1.1859 

-------
TIMINGS
-------

Total SCF time: 0 days 0 hours 0 min 5 sec 

Total time                  ....       5.565 sec
Sum of individual times     ....       5.230 sec  ( 94.0%)

Fock matrix formation       ....       4.661 sec  ( 83.8%)
  Split-RI-J                ....       1.273 sec  ( 27.3% of F)
  XC integration            ....       3.364 sec  ( 72.2% of F)
    Basis function eval.    ....       1.095 sec  ( 32.6% of XC)
    Density eval.           ....       0.948 sec  ( 28.2% of XC)
    XC-Functional eval.     ....       0.171 sec  (  5.1% of XC)
    XC-Potential eval.      ....       0.846 sec  ( 25.1% of XC)
Diagonalization             ....       0.008 sec  (  0.1%)
Density matrix formation    ....       0.007 sec  (  0.1%)
Population analysis         ....       0.052 sec  (  0.9%)
Initial guess               ....       0.007 sec  (  0.1%)
Orbital Transformation      ....       0.000 sec  (  0.0%)
Orbital Orthonormalization  ....       0.003 sec  (  0.1%)
DIIS solution               ....       0.003 sec  (  0.1%)
SOSCF solution              ....       0.053 sec  (  1.0%)
Grid generation             ....       0.439 sec  (  7.9%)

Maximum memory used throughout the entire SCF-calculation: 63.1 MB

-------------------------   --------------------
FINAL SINGLE POINT ENERGY      -840.354611858198
-------------------------   --------------------

                                *** OPTIMIZATION RUN DONE ***

Storing optimized geometry in PF5_ts_scan.010.xyz ... done
Storing optimized geometry and energy in PF5_ts_scan.xyzall ... done
Storing actual gbw-file in PF5_ts_scan.010.gbw ... done

                            ***************************************
                            *     ORCA property calculations      *
                            ***************************************

                                    ---------------------
                                    Active property flags
                                    ---------------------
   (+) Dipole Moment


------------------------------------------------------------------------------
                       ORCA ELECTRIC PROPERTIES CALCULATION
------------------------------------------------------------------------------

Dipole Moment Calculation                       ... on
Quadrupole Moment Calculation                   ... off
Polarizability Calculation                      ... off
GBWName                                         ... PF5_ts_scan.gbw
Electron density                                ... PF5_ts_scan.scfp
The origin for moment calculation is the CENTER OF MASS  = ( 0.000000, -0.000537  0.000000)

-------------
DIPOLE MOMENT
-------------
                                X             Y             Z
Electronic contribution:      0.00000      -0.02232      -0.00000
Nuclear contribution   :      0.00000      -0.00167       0.00000
                        -----------------------------------------
Total Dipole Moment    :      0.00000      -0.02399      -0.00000
                        -----------------------------------------
Magnitude (a.u.)       :      0.02399
Magnitude (Debye)      :      0.06098



--------------------
Rotational spectrum 
--------------------
 
Rotational constants in cm-1:     0.120078     0.100819     0.100362 
Rotational constants in MHz :  3599.834532  3022.474615  3008.775640 

 Dipole components along the rotational axes: 
x,y,z [a.u.] :    -0.000000    -0.023989    -0.000000 
x,y,z [Debye]:    -0.000000    -0.060976    -0.000000 

 
                   **** RELAXED SURFACE SCAN DONE ***

                    SUMMARY OF THE CALCULATED SURFACE

----------------------------
RELAXED SURFACE SCAN RESULTS
----------------------------

Column   1: NONAME

The Calculated Surface using the 'Actual Energy'
   1.53400000 -840.35404176
   1.53877778 -840.35422438
   1.54355556 -840.35437453
   1.54833333 -840.35449416
   1.55311111 -840.35458286
   1.55788889 -840.35464603
   1.56266667 -840.35467812
   1.56744444 -840.35468229
   1.57222222 -840.35466038
   1.57700000 -840.35461186

The Calculated Surface using the SCF energy
   1.53400000 -840.35404176
   1.53877778 -840.35422438
   1.54355556 -840.35437453
   1.54833333 -840.35449416
   1.55311111 -840.35458286
   1.55788889 -840.35464603
   1.56266667 -840.35467812
   1.56744444 -840.35468229
   1.57222222 -840.35466038
   1.57700000 -840.35461186

Bond   1,  0 is already included
