
                                 *****************
                                 * O   R   C   A *
                                 *****************

                                            #,                                       
                                            ###                                      
                                            ####                                     
                                            #####                                    
                                            ######                                   
                                           ########,                                 
                                     ,,################,,,,,                         
                               ,,#################################,,                 
                          ,,##########################################,,             
                       ,#########################################, ''#####,          
                    ,#############################################,,   '####,        
                  ,##################################################,,,,####,       
                ,###########''''           ''''###############################       
              ,#####''   ,,,,##########,,,,          '''####'''          '####       
            ,##' ,,,,###########################,,,                        '##       
           ' ,,###''''                  '''############,,,                           
         ,,##''                                '''############,,,,        ,,,,,,###''
      ,#''                                            '''#######################'''  
     '                                                          ''''####''''         
             ,#######,   #######,   ,#######,      ##                                
            ,#'     '#,  ##    ##  ,#'     '#,    #''#        ######   ,####,        
            ##       ##  ##   ,#'  ##            #'  '#       #        #'  '#        
            ##       ##  #######   ##           ,######,      #####,   #    #        
            '#,     ,#'  ##    ##  '#,     ,#' ,#      #,         ##   #,  ,#        
             '#######'   ##     ##  '#######'  #'      '#     #####' # '####'        



                  #######################################################
                  #                        -***-                        #
                  #          Department of theory and spectroscopy      #
                  #    Directorship and core code : Frank Neese         #
                  #        Max Planck Institute fuer Kohlenforschung    #
                  #                Kaiser Wilhelm Platz 1               #
                  #                 D-45470 Muelheim/Ruhr               #
                  #                      Germany                        #
                  #                                                     #
                  #                  All rights reserved                #
                  #                        -***-                        #
                  #######################################################



                         Program Version 5.0.4 -  RELEASE  -

 With contributions from (in alphabetic order):
   Daniel Aravena         : Magnetic Suceptibility
   Michael Atanasov       : Ab Initio Ligand Field Theory (pilot matlab implementation)
   Alexander A. Auer      : GIAO ZORA, VPT2 properties, NMR spectrum
   Ute Becker             : Parallelization
   Giovanni Bistoni       : ED, misc. LED, open-shell LED, HFLD
   Martin Brehm           : Molecular dynamics
   Dmytro Bykov           : SCF Hessian
   Vijay G. Chilkuri      : MRCI spin determinant printing, contributions to CSF-ICE
   Dipayan Datta          : RHF DLPNO-CCSD density
   Achintya Kumar Dutta   : EOM-CC, STEOM-CC
   Dmitry Ganyushin       : Spin-Orbit,Spin-Spin,Magnetic field MRCI
   Miquel Garcia          : C-PCM and meta-GGA Hessian, CC/C-PCM, Gaussian charge scheme
   Yang Guo               : DLPNO-NEVPT2, F12-NEVPT2, CIM, IAO-localization
   Andreas Hansen         : Spin unrestricted coupled pair/coupled cluster methods
   Benjamin Helmich-Paris : MC-RPA, TRAH-SCF, COSX integrals
   Lee Huntington         : MR-EOM, pCC
   Robert Izsak           : Overlap fitted RIJCOSX, COSX-SCS-MP3, EOM
   Marcus Kettner         : VPT2
   Christian Kollmar      : KDIIS, OOCD, Brueckner-CCSD(T), CCSD density, CASPT2, CASPT2-K
   Simone Kossmann        : Meta GGA functionals, TD-DFT gradient, OOMP2, MP2 Hessian
   Martin Krupicka        : Initial AUTO-CI
   Lucas Lang             : DCDCAS
   Marvin Lechner         : AUTO-CI (C++ implementation), FIC-MRCC
   Dagmar Lenk            : GEPOL surface, SMD
   Dimitrios Liakos       : Extrapolation schemes; Compound Job, initial MDCI parallelization
   Dimitrios Manganas     : Further ROCIS development; embedding schemes
   Dimitrios Pantazis     : SARC Basis sets
   Anastasios Papadopoulos: AUTO-CI, single reference methods and gradients
   Taras Petrenko         : DFT Hessian,TD-DFT gradient, ASA, ECA, R-Raman, ABS, FL, XAS/XES, NRVS
   Peter Pinski           : DLPNO-MP2, DLPNO-MP2 Gradient
   Christoph Reimann      : Effective Core Potentials
   Marius Retegan         : Local ZFS, SOC
   Christoph Riplinger    : Optimizer, TS searches, QM/MM, DLPNO-CCSD(T), (RO)-DLPNO pert. Triples
   Tobias Risthaus        : Range-separated hybrids, TD-DFT gradient, RPA, STAB
   Michael Roemelt        : Original ROCIS implementation
   Masaaki Saitow         : Open-shell DLPNO-CCSD energy and density
   Barbara Sandhoefer     : DKH picture change effects
   Avijit Sen             : IP-ROCIS
   Kantharuban Sivalingam : CASSCF convergence, NEVPT2, FIC-MRCI
   Bernardo de Souza      : ESD, SOC TD-DFT
   Georgi Stoychev        : AutoAux, RI-MP2 NMR, DLPNO-MP2 response
   Willem Van den Heuvel  : Paramagnetic NMR
   Boris Wezisla          : Elementary symmetry handling
   Frank Wennmohs         : Technical directorship


 We gratefully acknowledge several colleagues who have allowed us to
 interface, adapt or use parts of their codes:
   Stefan Grimme, W. Hujo, H. Kruse, P. Pracht,  : VdW corrections, initial TS optimization,
                  C. Bannwarth, S. Ehlert          DFT functionals, gCP, sTDA/sTD-DF
   Ed Valeev, F. Pavosevic, A. Kumar             : LibInt (2-el integral package), F12 methods
   Garnet Chan, S. Sharma, J. Yang, R. Olivares  : DMRG
   Ulf Ekstrom                                   : XCFun DFT Library
   Mihaly Kallay                                 : mrcc  (arbitrary order and MRCC methods)
   Jiri Pittner, Ondrej Demel                    : Mk-CCSD
   Frank Weinhold                                : gennbo (NPA and NBO analysis)
   Christopher J. Cramer and Donald G. Truhlar   : smd solvation model
   Lars Goerigk                                  : TD-DFT with DH, B97 family of functionals
   V. Asgeirsson, H. Jonsson                     : NEB implementation
   FAccTs GmbH                                   : IRC, NEB, NEB-TS, DLPNO-Multilevel, CI-OPT
                                                   MM, QMMM, 2- and 3-layer-ONIOM, Crystal-QMMM,
                                                   LR-CPCM, SF, NACMEs, symmetry and pop. for TD-DFT,
                                                   nearIR, NL-DFT gradient (VV10), updates on ESD,
                                                   ML-optimized integration grids
   S Lehtola, MJT Oliveira, MAL Marques          : LibXC Library
   Liviu Ungur et al                             : ANISO software


 Your calculation uses the libint2 library for the computation of 2-el integrals
 For citations please refer to: http://libint.valeyev.net

 Your ORCA version has been built with support for libXC version: 5.1.0
 For citations please refer to: https://tddft.org/programs/libxc/

 This ORCA versions uses:
   CBLAS   interface :  Fast vector & matrix operations
   LAPACKE interface :  Fast linear algebra routines
   Shared memory     :  Shared parallel matrices


================================================================================

----- Orbital basis set information -----
Your calculation utilizes the basis: def2-TZVP
   F. Weigend and R. Ahlrichs, Phys. Chem. Chem. Phys. 7, 3297 (2005).

----- AuxJ basis set information -----
Your calculation utilizes the auxiliary basis: def2/J
   F. Weigend, Phys. Chem. Chem. Phys. 8, 1057 (2006).

================================================================================
                                        WARNINGS
                       Please study these warnings very carefully!
================================================================================


WARNING: Geometry Optimization
  ===> : Switching off AutoStart
         For restart on a previous wavefunction, please use MOREAD

INFO   : the flag for use of the SHARK integral package has been found!

================================================================================
                                       INPUT FILE
================================================================================
NAME = PF5_opt.inp
|  1> ! PBE def2-TZVP Opt
|  2> 
|  3> * xyz 0 1
|  4> P  0.0000  0.0000  0.0000
|  5> F  0.0000  1.5340  0.0000
|  6> F  1.3285 -0.7670  0.0000
|  7> F -1.3285 -0.7670  0.0000
|  8> F  0.0000  0.0000  1.5770
|  9> F  0.0000  0.0000 -1.5770
| 10> *
| 11> 
| 12>                          ****END OF INPUT****
================================================================================

                       *****************************
                       * Geometry Optimization Run *
                       *****************************

Geometry optimization settings:
Update method            Update   .... BFGS
Choice of coordinates    CoordSys .... Z-matrix Internals
Initial Hessian          InHess   .... Almoef's Model

Convergence Tolerances:
Energy Change            TolE     ....  5.0000e-06 Eh
Max. Gradient            TolMAXG  ....  3.0000e-04 Eh/bohr
RMS Gradient             TolRMSG  ....  1.0000e-04 Eh/bohr
Max. Displacement        TolMAXD  ....  4.0000e-03 bohr
RMS Displacement         TolRMSD  ....  2.0000e-03 bohr
Strict Convergence                ....  False
------------------------------------------------------------------------------
                        ORCA OPTIMIZATION COORDINATE SETUP
------------------------------------------------------------------------------

The optimization will be done in new redundant internal coordinates
Making redundant internal coordinates   ...  (new redundants) done
Evaluating the initial hessian          ...  (Almloef) done
Evaluating the coordinates              ...  done
Calculating the B-matrix                .... done
Calculating the G-matrix                .... done
Diagonalizing the G-matrix              .... done
The first mode is                       ....    2
The number of degrees of freedom        ....   12

    -----------------------------------------------------------------
                    Redundant Internal Coordinates


    -----------------------------------------------------------------
         Definition                    Initial Value    Approx d2E/dq
    -----------------------------------------------------------------
      1. B(F   1,P   0)                  1.5340         1.029717   
      2. B(F   2,P   0)                  1.5340         1.029661   
      3. B(F   3,P   0)                  1.5340         1.029661   
      4. B(F   4,P   0)                  1.5770         0.879254   
      5. B(F   5,P   0)                  1.5770         0.879254   
      6. A(F   1,P   0,F   3)          119.9997         0.588546   
      7. A(F   2,P   0,F   3)          120.0006         0.588540   
      8. A(F   1,P   0,F   4)           90.0000         0.571007   
      9. A(F   2,P   0,F   4)           90.0000         0.571001   
     10. A(F   3,P   0,F   4)           90.0000         0.571001   
     11. A(F   1,P   0,F   5)           90.0000         0.571007   
     12. A(F   2,P   0,F   5)           90.0000         0.571001   
     13. A(F   3,P   0,F   5)           90.0000         0.571001   
     14. A(F   1,P   0,F   2)          119.9997         0.588546   
    -----------------------------------------------------------------

Number of atoms                         .... 6
Number of degrees of freedom            .... 14

         *************************************************************
         *                GEOMETRY OPTIMIZATION CYCLE   1            *
         *************************************************************
---------------------------------
CARTESIAN COORDINATES (ANGSTROEM)
---------------------------------
  P      0.000000    0.000000    0.000000
  F      0.000000    1.534000    0.000000
  F      1.328500   -0.767000    0.000000
  F     -1.328500   -0.767000    0.000000
  F      0.000000    0.000000    1.577000
  F      0.000000    0.000000   -1.577000

----------------------------
CARTESIAN COORDINATES (A.U.)
----------------------------
  NO LB      ZA    FRAG     MASS         X           Y           Z
   0 P    15.0000    0    30.974    0.000000    0.000000    0.000000
   1 F     9.0000    0    18.998    0.000000    2.898840    0.000000
   2 F     9.0000    0    18.998    2.510501   -1.449420    0.000000
   3 F     9.0000    0    18.998   -2.510501   -1.449420    0.000000
   4 F     9.0000    0    18.998    0.000000    0.000000    2.980098
   5 F     9.0000    0    18.998    0.000000    0.000000   -2.980098

--------------------------------
INTERNAL COORDINATES (ANGSTROEM)
--------------------------------
 P      0   0   0     0.000000000000     0.00000000     0.00000000
 F      1   0   0     1.534000000000     0.00000000     0.00000000
 F      1   2   0     1.534014748951   119.99968195     0.00000000
 F      1   2   3     1.534014748951   119.99968195   180.00000000
 F      1   2   3     1.577000000000    90.00000000    90.00000000
 F      1   2   3     1.577000000000    90.00000000   270.00000000

---------------------------
INTERNAL COORDINATES (A.U.)
---------------------------
 P      0   0   0     0.000000000000     0.00000000     0.00000000
 F      1   0   0     2.898839889435     0.00000000     0.00000000
 F      1   2   0     2.898867760914   119.99968195     0.00000000
 F      1   2   3     2.898867760914   119.99968195   180.00000000
 F      1   2   3     2.980098113194    90.00000000    90.00000000
 F      1   2   3     2.980098113194    90.00000000   270.00000000

---------------------
BASIS SET INFORMATION
---------------------
There are 2 groups of distinct atoms

 Group   1 Type P   : 14s9p3d1f contracted to 5s5p2d1f pattern {73211/51111/21/1}
 Group   2 Type F   : 11s6p2d1f contracted to 5s3p2d1f pattern {62111/411/11/1}

Atom   0P    basis set group =>   1
Atom   1F    basis set group =>   2
Atom   2F    basis set group =>   2
Atom   3F    basis set group =>   2
Atom   4F    basis set group =>   2
Atom   5F    basis set group =>   2
---------------------------------
AUXILIARY/J BASIS SET INFORMATION
---------------------------------
There are 2 groups of distinct atoms

 Group   1 Type P   : 14s5p5d2f1g contracted to 8s4p3d1f1g pattern {71111111/2111/311/2/1}
 Group   2 Type F   : 12s5p4d2f1g contracted to 6s4p3d1f1g pattern {711111/2111/211/2/1}

Atom   0P    basis set group =>   1
Atom   1F    basis set group =>   2
Atom   2F    basis set group =>   2
Atom   3F    basis set group =>   2
Atom   4F    basis set group =>   2
Atom   5F    basis set group =>   2
------------------------------------------------------------------------------
                           ORCA GTO INTEGRAL CALCULATION
                           -- RI-GTO INTEGRALS CHOSEN --
------------------------------------------------------------------------------
------------------------------------------------------------------------------
                   ___                                                        
                  /   \      - P O W E R E D   B Y -                         
                 /     \                                                     
                 |  |  |   _    _      __       _____    __    __             
                 |  |  |  | |  | |    /  \     |  _  \  |  |  /  |          
                  \  \/   | |  | |   /    \    | | | |  |  | /  /          
                 / \  \   | |__| |  /  /\  \   | |_| |  |  |/  /          
                |  |  |   |  __  | /  /__\  \  |    /   |      \           
                |  |  |   | |  | | |   __   |  |    \   |  |\   \          
                \     /   | |  | | |  |  |  |  | |\  \  |  | \   \       
                 \___/    |_|  |_| |__|  |__|  |_| \__\ |__|  \__/        
                                                                              
                      - O R C A' S   B I G   F R I E N D -                    
                                      &                                       
                       - I N T E G R A L  F E E D E R -                       
                                                                              
 v1 FN, 2020, v2 2021                                                         
------------------------------------------------------------------------------


Reading SHARK input file PF5_opt.SHARKINP.tmp ... ok
----------------------
SHARK INTEGRAL PACKAGE
----------------------

Number of atoms                             ...      6
Number of basis functions                   ...    192
Number of shells                            ...     68
Maximum angular momentum                    ...      3
Integral batch strategy                     ... SHARK/LIBINT Hybrid
RI-J (if used) integral strategy            ... SPLIT-RIJ (Revised 2003 algorithm where possible)
Printlevel                                  ...      1
Contraction scheme used                     ... SEGMENTED contraction
Coulomb Range Separation                    ... NOT USED
Exchange Range Separation                   ... NOT USED
Finite Nucleus Model                        ... NOT USED
Auxiliary Coulomb fitting basis             ... AVAILABLE
   # of basis functions in Aux-J            ...    296
   # of shells in Aux-J                     ...     92
   Maximum angular momentum in Aux-J        ...      4
Auxiliary J/K fitting basis                 ... NOT available
Auxiliary Correlation fitting basis         ... NOT available
Auxiliary 'external' fitting basis          ... NOT available
Integral threshold                          ...     2.500000e-11
Primitive cut-off                           ...     2.500000e-12
Primitive pair pre-selection threshold      ...     2.500000e-12

Calculating pre-screening integrals         ... done (  0.1 sec) Dimension = 68
Organizing shell pair data                  ... done (  0.1 sec)
Shell pair information
Total number of shell pairs                 ...      2346
Shell pairs after pre-screening             ...      2156
Total number of primitive shell pairs       ...      8274
Primitive shell pairs kept                  ...      5594
          la=0 lb=0:    393 shell pairs
          la=1 lb=0:    565 shell pairs
          la=1 lb=1:    209 shell pairs
          la=2 lb=0:    316 shell pairs
          la=2 lb=1:    238 shell pairs
          la=2 lb=2:     74 shell pairs
          la=3 lb=0:    152 shell pairs
          la=3 lb=1:    118 shell pairs
          la=3 lb=2:     70 shell pairs
          la=3 lb=3:     21 shell pairs

Calculating one electron integrals          ... done (  0.0 sec)
Calculating RI/J V-Matrix + Cholesky decomp.... done (  0.0 sec)
Calculating Nuclear repulsion               ... done (  0.0 sec) ENN=    409.197053778580 Eh

SHARK setup successfully completed in   0.5 seconds

Maximum memory used throughout the entire GTOINT-calculation: 51.1 MB
-------------------------------------------------------------------------------
                                 ORCA SCF
-------------------------------------------------------------------------------

------------
SCF SETTINGS
------------
Hamiltonian:
 Density Functional     Method          .... DFT(GTOs)
 Exchange Functional    Exchange        .... PBE
   PBE kappa parameter   XKappa         ....  0.804000
   PBE mue parameter    XMuePBE         ....  0.219520
 Correlation Functional Correlation     .... PBE
   PBE beta parameter  CBetaPBE         ....  0.066725
 LDA part of GGA corr.  LDAOpt          .... PW91-LDA
 Gradients option       PostSCFGGA      .... off
   Density functional embedding theory  .... OFF
   NL short-range parameter             ....  6.400000
 RI-approximation to the Coulomb term is turned on
   Number of AuxJ basis functions       .... 296


General Settings:
 Integral files         IntName         .... PF5_opt
 Hartree-Fock type      HFTyp           .... RHF
 Total Charge           Charge          ....    0
 Multiplicity           Mult            ....    1
 Number of Electrons    NEL             ....   60
 Basis Dimension        Dim             ....  192
 Nuclear Repulsion      ENuc            ....    409.1970537786 Eh

Convergence Acceleration:
 DIIS                   CNVDIIS         .... on
   Start iteration      DIISMaxIt       ....    12
   Startup error        DIISStart       ....  0.200000
   # of expansion vecs  DIISMaxEq       ....     5
   Bias factor          DIISBfac        ....   1.050
   Max. coefficient     DIISMaxC        ....  10.000
 Trust-Rad. Augm. Hess. CNVTRAH         .... auto
   Auto Start mean grad. ratio tolernc. ....  1.125000
   Auto Start start iteration           ....    20
   Auto Start num. interpolation iter.  ....    10
   Max. Number of Micro iterations      ....    16
   Max. Number of Macro iterations      .... Maxiter - #DIIS iter
   Number of Davidson start vectors     ....     2
   Converg. threshold I  (grad. norm)   ....   1.000e-05
   Converg. threshold II (energy diff.) ....   1.000e-08
   Grad. Scal. Fac. for Micro threshold ....   0.100
   Minimum threshold for Micro iter.    ....   0.010
   NR start threshold (gradient norm)   ....   0.001
   Initial trust radius                 ....   0.400
   Minimum AH scaling param. (alpha)    ....   1.000
   Maximum AH scaling param. (alpha)    .... 1000.000
   Orbital update algorithm             .... Taylor
   White noise on init. David. guess    .... on
   Maximum white noise                  ....   0.010
   Quad. conv. algorithm                .... NR
 SOSCF                  CNVSOSCF        .... on
   Start iteration      SOSCFMaxIt      ....   150
   Startup grad/error   SOSCFStart      ....  0.003300
 Level Shifting         CNVShift        .... on
   Level shift para.    LevelShift      ....    0.2500
   Turn off err/grad.   ShiftErr        ....    0.0010
 Zerner damping         CNVZerner       .... off
 Static damping         CNVDamp         .... on
   Fraction old density DampFac         ....    0.7000
   Max. Damping (<1)    DampMax         ....    0.9800
   Min. Damping (>=0)   DampMin         ....    0.0000
   Turn off err/grad.   DampErr         ....    0.1000
 Fernandez-Rico         CNVRico         .... off

SCF Procedure:
 Maximum # iterations   MaxIter         ....   125
 SCF integral mode      SCFMode         .... Direct
   Integral package                     .... SHARK and LIBINT hybrid scheme
 Reset frequency        DirectResetFreq ....    20
 Integral Threshold     Thresh          ....  2.500e-11 Eh
 Primitive CutOff       TCut            ....  2.500e-12 Eh

Convergence Tolerance:
 Convergence Check Mode ConvCheckMode   .... Total+1el-Energy
 Convergence forced     ConvForced      .... 0
 Energy Change          TolE            ....  1.000e-08 Eh
 1-El. energy change                    ....  1.000e-05 Eh
 Orbital Gradient       TolG            ....  1.000e-05
 Orbital Rotation angle TolX            ....  1.000e-05
 DIIS Error             TolErr          ....  5.000e-07


Diagonalization of the overlap matrix:
Smallest eigenvalue                        ... 2.045e-03
Time for diagonalization                   ...    0.007 sec
Threshold for overlap eigenvalues          ... 1.000e-08
Number of eigenvalues below threshold      ... 0
Time for construction of square roots      ...    0.005 sec
Total time needed                          ...    0.013 sec

Time for model grid setup =    0.220 sec

------------------------------
INITIAL GUESS: MODEL POTENTIAL
------------------------------
Loading Hartree-Fock densities                     ... done
Calculating cut-offs                               ... done
Initializing the effective Hamiltonian             ... done
Setting up the integral package (SHARK)            ... done
Starting the Coulomb interaction                   ... done (   0.2 sec)
Reading the grid                                   ... done
Mapping shells                                     ... done
Starting the XC term evaluation                    ... done (   0.4 sec)
  promolecular density results
     # of electrons  =     60.000795661
     EX              =    -72.681436251
     EC              =     -2.183059424
     EX+EC           =    -74.864495675
Transforming the Hamiltonian                       ... done (   0.0 sec)
Diagonalizing the Hamiltonian                      ... done (   0.0 sec)
Back transforming the eigenvectors                 ... done (   0.0 sec)
Now organizing SCF variables                       ... done
                      ------------------
                      INITIAL GUESS DONE (   0.8 sec)
                      ------------------
-------------------
DFT GRID GENERATION
-------------------

General Integration Accuracy     IntAcc      ... 4.388
Radial Grid Type                 RadialGrid  ... OptM3 with GC (2021)
Angular Grid (max. ang.)         AngularGrid ... 4 (Lebedev-302)
Angular grid pruning method      GridPruning ... 4 (adaptive)
Weight generation scheme         WeightScheme... Becke
Basis function cutoff            BFCut       ... 1.0000e-11
Integration weight cutoff        WCut        ... 1.0000e-14
Angular grids for H and He will be reduced by one unit
Partially contracted basis set               ... off
Rotationally invariant grid construction     ... off

Total number of grid points                  ...    37924
Total number of batches                      ...      594
Average number of points per batch           ...       63
Average number of grid points per atom       ...     6321
Time for grid setup =    0.736 sec

--------------
SCF ITERATIONS
--------------
ITER       Energy         Delta-E        Max-DP      RMS-DP      [F,P]     Damp
               ***  Starting incremental Fock matrix formation  ***
  0   -840.2099729483   0.000000000000 0.15340765  0.00136339  0.1853218 0.7000
  1   -840.2818365790  -0.071863630757 0.07834259  0.00069061  0.0590715 0.7000
                               ***Turning on DIIS***
  2   -840.3018607507  -0.020024171706 0.05494367  0.00055008  0.0056589 0.0000
  3   -840.3470447192  -0.045183968454 0.03941703  0.00034429  0.0293091 0.0000
  4   -840.3512355166  -0.004190797383 0.00842762  0.00007793  0.0044010 0.0000
                      *** Initiating the SOSCF procedure ***
                           *** Shutting down DIIS ***
                      *** Re-Reading the Fockian *** 
                      *** Removing any level shift *** 
ITER      Energy       Delta-E        Grad      Rot      Max-DP    RMS-DP
  5   -840.35134736  -0.0001118478  0.000497  0.000497  0.000755  0.000022
               *** Restarting incremental Fock matrix formation ***
  6   -840.35135697  -0.0000096097  0.000285  0.000442  0.000951  0.000015
  7   -840.35135397   0.0000030014  0.000535  0.000403  0.000356  0.000010
  8   -840.35135822  -0.0000042509  0.000033  0.000053  0.000282  0.000002
  9   -840.35135821   0.0000000123  0.000049  0.000030  0.000151  0.000001
 10   -840.35135824  -0.0000000265  0.000007  0.000007  0.000025  0.000000
 11   -840.35135823   0.0000000090  0.000007  0.000003  0.000017  0.000000
                  ***Gradient check signals convergence***
              ***Rediagonalizing the Fockian in SOSCF/NRSCF***

               *****************************************************
               *                     SUCCESS                       *
               *           SCF CONVERGED AFTER  12 CYCLES          *
               *****************************************************


----------------
TOTAL SCF ENERGY
----------------

Total Energy       :         -840.35135824 Eh          -22867.12300 eV

Components:
Nuclear Repulsion  :          409.19705378 Eh           11134.81792 eV
Electronic Energy  :        -1249.54841202 Eh          -34001.94092 eV
One Electron Energy:        -1982.40849265 Eh          -53944.07755 eV
Two Electron Energy:          732.86008063 Eh           19942.13663 eV

Virial components:
Potential Energy   :        -1678.85368133 Eh          -45683.93120 eV
Kinetic Energy     :          838.50232309 Eh           22816.80820 eV
Virial Ratio       :            2.00220516


DFT components:
N(Alpha)           :       29.999990569583 electrons
N(Beta)            :       29.999990569583 electrons
N(Total)           :       59.999981139165 electrons
E(X)               :      -73.054489760508 Eh       
E(C)               :       -2.176931906044 Eh       
E(XC)              :      -75.231421666552 Eh       
DFET-embed. en.    :        0.000000000000 Eh       

---------------
SCF CONVERGENCE
---------------

  Last Energy change         ...   -1.1947e-08  Tolerance :   1.0000e-08
  Last MAX-Density change    ...    3.5469e-07  Tolerance :   1.0000e-07
  Last RMS-Density change    ...    1.1136e-08  Tolerance :   5.0000e-09
  Last Orbital Gradient      ...    2.0619e-07  Tolerance :   1.0000e-05
  Last Orbital Rotation      ...    2.6858e-07  Tolerance :   1.0000e-05

             **** THE GBW FILE WAS UPDATED (PF5_opt.gbw) ****
             **** DENSITY PF5_opt.scfp WAS UPDATED ****
             **** ENERGY FILE WAS UPDATED (PF5_opt.en.tmp) ****
             **** THE GBW FILE WAS UPDATED (PF5_opt.gbw) ****
             **** DENSITY PF5_opt.scfp WAS UPDATED ****
----------------
ORBITAL ENERGIES
----------------

  NO   OCC          E(Eh)            E(eV) 
   0   2.0000     -76.544835     -2082.8909 
   1   2.0000     -24.322877      -661.8591 
   2   2.0000     -24.322860      -661.8587 
   3   2.0000     -24.322859      -661.8586 
   4   2.0000     -24.279334      -660.6743 
   5   2.0000     -24.279307      -660.6735 
   6   2.0000      -6.518880      -177.3877 
   7   2.0000      -4.737437      -128.9122 
   8   2.0000      -4.737437      -128.9122 
   9   2.0000      -4.734355      -128.8283 
  10   2.0000      -1.238450       -33.6999 
  11   2.0000      -1.175938       -31.9989 
  12   2.0000      -1.175934       -31.9988 
  13   2.0000      -1.137596       -30.9556 
  14   2.0000      -1.106269       -30.1031 
  15   2.0000      -0.647544       -17.6206 
  16   2.0000      -0.555758       -15.1230 
  17   2.0000      -0.555756       -15.1229 
  18   2.0000      -0.539990       -14.6939 
  19   2.0000      -0.480282       -13.0691 
  20   2.0000      -0.480276       -13.0690 
  21   2.0000      -0.466311       -12.6890 
  22   2.0000      -0.466310       -12.6889 
  23   2.0000      -0.446607       -12.1528 
  24   2.0000      -0.424957       -11.5637 
  25   2.0000      -0.403192       -10.9714 
  26   2.0000      -0.386967       -10.5299 
  27   2.0000      -0.386966       -10.5299 
  28   2.0000      -0.360999        -9.8233 
  29   2.0000      -0.360997        -9.8232 
  30   0.0000      -0.015755        -0.4287 
  31   0.0000       0.048582         1.3220 
  32   0.0000       0.048588         1.3222 
  33   0.0000       0.131042         3.5658 
  34   0.0000       0.171386         4.6637 
  35   0.0000       0.171392         4.6638 
  36   0.0000       0.172426         4.6919 
  37   0.0000       0.260094         7.0775 
  38   0.0000       0.342143         9.3102 
  39   0.0000       0.342146         9.3103 
  40   0.0000       0.378670        10.3041 
  41   0.0000       0.391945        10.6654 
  42   0.0000       0.391947        10.6654 
  43   0.0000       0.436864        11.8877 
  44   0.0000       0.436890        11.8884 
  45   0.0000       0.482367        13.1259 
  46   0.0000       0.491700        13.3798 
  47   0.0000       0.539011        14.6672 
  48   0.0000       0.539032        14.6678 
  49   0.0000       0.568630        15.4732 
  50   0.0000       0.628347        17.0982 
  51   0.0000       0.628355        17.0984 
  52   0.0000       0.658830        17.9277 
  53   0.0000       0.658850        17.9282 
  54   0.0000       0.708165        19.2701 
  55   0.0000       0.708185        19.2707 
  56   0.0000       0.712684        19.3931 
  57   0.0000       0.769067        20.9274 
  58   0.0000       0.859768        23.3955 
  59   0.0000       0.859778        23.3958 
  60   0.0000       0.892112        24.2756 
  61   0.0000       0.897188        24.4137 
  62   0.0000       1.025388        27.9022 
  63   0.0000       1.025407        27.9027 
  64   0.0000       1.060802        28.8659 
  65   0.0000       1.142147        31.0794 
  66   0.0000       1.142154        31.0796 
  67   0.0000       1.236152        33.6374 
  68   0.0000       1.262125        34.3442 
  69   0.0000       1.302029        35.4300 
  70   0.0000       1.302045        35.4304 
  71   0.0000       1.323159        36.0050 
  72   0.0000       1.323191        36.0059 
  73   0.0000       1.454000        39.5653 
  74   0.0000       1.746107        47.5140 
  75   0.0000       1.746114        47.5142 
  76   0.0000       1.791375        48.7458 
  77   0.0000       1.864665        50.7401 
  78   0.0000       1.864678        50.7405 
  79   0.0000       1.880441        51.1694 
  80   0.0000       1.880444        51.1695 
  81   0.0000       2.034862        55.3714 
  82   0.0000       2.050786        55.8047 
  83   0.0000       2.050789        55.8048 
  84   0.0000       2.064189        56.1694 
  85   0.0000       2.064196        56.1696 
  86   0.0000       2.138554        58.1930 
  87   0.0000       2.187824        59.5337 
  88   0.0000       2.239471        60.9391 
  89   0.0000       2.239479        60.9393 
  90   0.0000       2.337920        63.6180 
  91   0.0000       2.337932        63.6184 
  92   0.0000       2.342178        63.7339 
  93   0.0000       2.387586        64.9695 
  94   0.0000       2.506166        68.1963 
  95   0.0000       2.506184        68.1967 
  96   0.0000       2.522040        68.6282 
  97   0.0000       2.522043        68.6283 
  98   0.0000       2.554922        69.5230 
  99   0.0000       2.618332        71.2484 
 100   0.0000       2.662204        72.4423 
 101   0.0000       2.663533        72.4784 
 102   0.0000       2.663534        72.4785 
 103   0.0000       3.069459        83.5242 
 104   0.0000       3.069474        83.5246 
 105   0.0000       3.099282        84.3357 
 106   0.0000       3.099287        84.3359 
 107   0.0000       3.224095        87.7321 
 108   0.0000       3.365788        91.5878 
 109   0.0000       3.373173        91.7887 
 110   0.0000       3.373174        91.7887 
 111   0.0000       3.501175        95.2718 
 112   0.0000       3.501214        95.2729 
 113   0.0000       3.586135        97.5837 
 114   0.0000       3.624887        98.6382 
 115   0.0000       3.624891        98.6383 
 116   0.0000       3.708615       100.9166 
 117   0.0000       3.710048       100.9555 
 118   0.0000       3.832458       104.2865 
 119   0.0000       4.133502       112.4783 
 120   0.0000       4.175119       113.6108 
 121   0.0000       4.175124       113.6109 
 122   0.0000       4.848881       131.9448 
 123   0.0000       6.393859       173.9857 
 124   0.0000       6.398114       174.1015 
 125   0.0000       6.398185       174.1035 
 126   0.0000       6.610462       179.8798 
 127   0.0000       6.610542       179.8820 
 128   0.0000       6.616091       180.0330 
 129   0.0000       6.623638       180.2384 
 130   0.0000       6.623654       180.2388 
 131   0.0000       6.640877       180.7074 
 132   0.0000       6.640909       180.7083 
 133   0.0000       6.653118       181.0406 
 134   0.0000       6.654362       181.0744 
 135   0.0000       6.654398       181.0754 
 136   0.0000       6.656102       181.1218 
 137   0.0000       6.656137       181.1227 
 138   0.0000       6.658568       181.1888 
 139   0.0000       6.690461       182.0567 
 140   0.0000       6.691016       182.0718 
 141   0.0000       6.691816       182.0936 
 142   0.0000       6.697683       182.2532 
 143   0.0000       6.701406       182.3545 
 144   0.0000       6.714243       182.7039 
 145   0.0000       6.714278       182.7048 
 146   0.0000       6.737479       183.3361 
 147   0.0000       6.737536       183.3377 
 148   0.0000       6.741368       183.4419 
 149   0.0000       6.741434       183.4438 
 150   0.0000       6.782524       184.5619 
 151   0.0000       6.896543       187.6645 
 152   0.0000       6.905253       187.9015 
 153   0.0000       6.905429       187.9063 
 154   0.0000       6.947084       189.0398 
 155   0.0000       6.958741       189.3570 
 156   0.0000       6.961513       189.4324 
 157   0.0000       6.961531       189.4329 
 158   0.0000       7.855410       213.7566 
 159   0.0000       7.864726       214.0101 
 160   0.0000       7.864763       214.0111 
 161   0.0000       8.009678       217.9544 
 162   0.0000       8.062963       219.4044 
 163   0.0000       8.063061       219.4071 
 164   0.0000       8.067609       219.5308 
 165   0.0000       8.067733       219.5342 
 166   0.0000       8.178476       222.5477 
 167   0.0000       8.178673       222.5530 
 168   0.0000       8.198774       223.1000 
 169   0.0000       8.199037       223.1072 
 170   0.0000       8.244339       224.3399 
 171   0.0000       8.301648       225.8993 
 172   0.0000       8.301743       225.9019 
 173   0.0000       8.377750       227.9702 
 174   0.0000       8.436876       229.5791 
 175   0.0000       8.436956       229.5813 
 176   0.0000       8.449809       229.9310 
 177   0.0000       8.604085       234.1291 
 178   0.0000       8.622649       234.6342 
 179   0.0000       8.622667       234.6347 
 180   0.0000       8.666241       235.8204 
 181   0.0000       8.666292       235.8218 
 182   0.0000       8.756710       238.2822 
 183   0.0000       8.849746       240.8138 
 184   0.0000       8.849769       240.8145 
 185   0.0000       9.160249       249.2630 
 186   0.0000      16.200854       440.8477 
 187   0.0000      56.268811      1531.1522 
 188   0.0000      56.358992      1533.6061 
 189   0.0000      56.359004      1533.6065 
 190   0.0000      56.758694      1544.4826 
 191   0.0000      56.760455      1544.5305 

                    ********************************
                    * MULLIKEN POPULATION ANALYSIS *
                    ********************************

-----------------------
MULLIKEN ATOMIC CHARGES
-----------------------
   0 P :    0.921529
   1 F :   -0.149923
   2 F :   -0.149885
   3 F :   -0.149885
   4 F :   -0.235919
   5 F :   -0.235919
Sum of atomic charges:    0.0000000

--------------------------------
MULLIKEN REDUCED ORBITAL CHARGES
--------------------------------
  0 P s       :     4.907734  s :     4.907734
      pz      :     2.638069  p :     7.827370
      px      :     2.594666
      py      :     2.594635
      dz2     :     0.275968  d :     1.082914
      dxz     :     0.201846
      dyz     :     0.201860
      dx2y2   :     0.201619
      dxy     :     0.201622
      f0      :     0.063879  f :     0.260452
      f+1     :     0.045141
      f-1     :     0.045141
      f+2     :     0.015754
      f-2     :     0.015754
      f+3     :     0.051934
      f-3     :     0.022849
  1 F s       :     3.891697  s :     3.891697
      pz      :     1.886905  p :     5.242954
      px      :     1.819302
      py      :     1.536748
      dz2     :     0.002015  d :     0.014751
      dxz     :     0.000136
      dyz     :     0.003592
      dx2y2   :     0.004790
      dxy     :     0.004218
      f0      :     0.000054  f :     0.000520
      f+1     :     0.000013
      f-1     :     0.000115
      f+2     :     0.000077
      f-2     :     0.000006
      f+3     :     0.000125
      f-3     :     0.000130
  2 F s       :     3.891682  s :     3.891682
      pz      :     1.886908  p :     5.242932
      px      :     1.607360
      py      :     1.748664
      dz2     :     0.002015  d :     0.014750
      dxz     :     0.002728
      dyz     :     0.001000
      dx2y2   :     0.004361
      dxy     :     0.004647
      f0      :     0.000054  f :     0.000520
      f+1     :     0.000090
      f-1     :     0.000039
      f+2     :     0.000024
      f-2     :     0.000059
      f+3     :     0.000124
      f-3     :     0.000130
  3 F s       :     3.891682  s :     3.891682
      pz      :     1.886908  p :     5.242932
      px      :     1.607360
      py      :     1.748664
      dz2     :     0.002015  d :     0.014750
      dxz     :     0.002728
      dyz     :     0.001000
      dx2y2   :     0.004361
      dxy     :     0.004647
      f0      :     0.000054  f :     0.000520
      f+1     :     0.000090
      f-1     :     0.000039
      f+2     :     0.000024
      f-2     :     0.000059
      f+3     :     0.000124
      f-3     :     0.000130
  4 F s       :     3.905072  s :     3.905072
      pz      :     1.566477  p :     5.317379
      px      :     1.875454
      py      :     1.875448
      dz2     :     0.006189  d :     0.013027
      dxz     :     0.003167
      dyz     :     0.003167
      dx2y2   :     0.000252
      dxy     :     0.000252
      f0      :     0.000204  f :     0.000441
      f+1     :     0.000106
      f-1     :     0.000106
      f+2     :     0.000010
      f-2     :     0.000010
      f+3     :     0.000001
      f-3     :     0.000002
  5 F s       :     3.905072  s :     3.905072
      pz      :     1.566477  p :     5.317379
      px      :     1.875454
      py      :     1.875448
      dz2     :     0.006189  d :     0.013027
      dxz     :     0.003167
      dyz     :     0.003167
      dx2y2   :     0.000252
      dxy     :     0.000252
      f0      :     0.000204  f :     0.000441
      f+1     :     0.000106
      f-1     :     0.000106
      f+2     :     0.000010
      f-2     :     0.000010
      f+3     :     0.000001
      f-3     :     0.000002


                     *******************************
                     * LOEWDIN POPULATION ANALYSIS *
                     *******************************

----------------------
LOEWDIN ATOMIC CHARGES
----------------------
   0 P :   -0.186918
   1 F :    0.068450
   2 F :    0.068442
   3 F :    0.068442
   4 F :   -0.009209
   5 F :   -0.009209

-------------------------------
LOEWDIN REDUCED ORBITAL CHARGES
-------------------------------
  0 P s       :     4.600455  s :     4.600455
      pz      :     2.687234  p :     7.983427
      px      :     2.648097
      py      :     2.648096
      dz2     :     0.555857  d :     1.844899
      dxz     :     0.274981
      dyz     :     0.274987
      dx2y2   :     0.369537
      dxy     :     0.369537
      f0      :     0.193232  f :     0.758136
      f+1     :     0.130802
      f-1     :     0.130803
      f+2     :     0.039962
      f-2     :     0.039961
      f+3     :     0.129604
      f-3     :     0.093772
  1 F s       :     3.665435  s :     3.665435
      pz      :     1.833432  p :     5.241341
      px      :     1.761473
      py      :     1.646436
      dz2     :     0.004054  d :     0.023898
      dxz     :     0.000166
      dyz     :     0.004926
      dx2y2   :     0.010786
      dxy     :     0.003967
      f0      :     0.000075  f :     0.000876
      f+1     :     0.000012
      f-1     :     0.000202
      f+2     :     0.000124
      f-2     :     0.000012
      f+3     :     0.000148
      f-3     :     0.000303
  2 F s       :     3.665442  s :     3.665442
      pz      :     1.833439  p :     5.241342
      px      :     1.675182
      py      :     1.732721
      dz2     :     0.004054  d :     0.023898
      dxz     :     0.003736
      dyz     :     0.001356
      dx2y2   :     0.005671
      dxy     :     0.009081
      f0      :     0.000075  f :     0.000876
      f+1     :     0.000154
      f-1     :     0.000060
      f+2     :     0.000040
      f-2     :     0.000096
      f+3     :     0.000148
      f-3     :     0.000303
  3 F s       :     3.665442  s :     3.665442
      pz      :     1.833439  p :     5.241342
      px      :     1.675182
      py      :     1.732721
      dz2     :     0.004054  d :     0.023898
      dxz     :     0.003736
      dyz     :     0.001356
      dx2y2   :     0.005671
      dxy     :     0.009081
      f0      :     0.000075  f :     0.000876
      f+1     :     0.000154
      f-1     :     0.000060
      f+2     :     0.000040
      f-2     :     0.000096
      f+3     :     0.000148
      f-3     :     0.000303
  4 F s       :     3.683890  s :     3.683890
      pz      :     1.648070  p :     5.302507
      px      :     1.827220
      py      :     1.827217
      dz2     :     0.013407  d :     0.022005
      dxz     :     0.003974
      dyz     :     0.003974
      dx2y2   :     0.000325
      dxy     :     0.000325
      f0      :     0.000443  f :     0.000807
      f+1     :     0.000168
      f-1     :     0.000168
      f+2     :     0.000012
      f-2     :     0.000012
      f+3     :     0.000001
      f-3     :     0.000004
  5 F s       :     3.683890  s :     3.683890
      pz      :     1.648070  p :     5.302507
      px      :     1.827220
      py      :     1.827217
      dz2     :     0.013407  d :     0.022005
      dxz     :     0.003974
      dyz     :     0.003974
      dx2y2   :     0.000325
      dxy     :     0.000325
      f0      :     0.000443  f :     0.000807
      f+1     :     0.000168
      f-1     :     0.000168
      f+2     :     0.000012
      f-2     :     0.000012
      f+3     :     0.000001
      f-3     :     0.000004


                      *****************************
                      * MAYER POPULATION ANALYSIS *
                      *****************************

  NA   - Mulliken gross atomic population
  ZA   - Total nuclear charge
  QA   - Mulliken gross atomic charge
  VA   - Mayer's total valence
  BVA  - Mayer's bonded valence
  FA   - Mayer's free valence

  ATOM       NA         ZA         QA         VA         BVA        FA
  0 P     14.0785    15.0000     0.9215     6.1062     6.1062    -0.0000
  1 F      9.1499     9.0000    -0.1499     1.2560     1.2560    -0.0000
  2 F      9.1499     9.0000    -0.1499     1.2559     1.2559    -0.0000
  3 F      9.1499     9.0000    -0.1499     1.2559     1.2559    -0.0000
  4 F      9.2359     9.0000    -0.2359     1.2069     1.2069    -0.0000
  5 F      9.2359     9.0000    -0.2359     1.2069     1.2069    -0.0000

  Mayer bond orders larger than 0.100000
B(  0-P ,  1-F ) :   1.2323 B(  0-P ,  2-F ) :   1.2323 B(  0-P ,  3-F ) :   1.2323 
B(  0-P ,  4-F ) :   1.2047 B(  0-P ,  5-F ) :   1.2047 

-------
TIMINGS
-------

Total SCF time: 0 days 0 hours 0 min 20 sec 

Total time                  ....      20.733 sec
Sum of individual times     ....      20.165 sec  ( 97.3%)

Fock matrix formation       ....      18.156 sec  ( 87.6%)
  Split-RI-J                ....       4.800 sec  ( 26.4% of F)
  XC integration            ....      13.162 sec  ( 72.5% of F)
    Basis function eval.    ....       4.170 sec  ( 31.7% of XC)
    Density eval.           ....       3.579 sec  ( 27.2% of XC)
    XC-Functional eval.     ....       0.680 sec  (  5.2% of XC)
    XC-Potential eval.      ....       3.811 sec  ( 29.0% of XC)
Diagonalization             ....       0.103 sec  (  0.5%)
Density matrix formation    ....       0.026 sec  (  0.1%)
Population analysis         ....       0.100 sec  (  0.5%)
Initial guess               ....       0.623 sec  (  3.0%)
Orbital Transformation      ....       0.000 sec  (  0.0%)
Orbital Orthonormalization  ....       0.000 sec  (  0.0%)
DIIS solution               ....       0.088 sec  (  0.4%)
SOSCF solution              ....       0.113 sec  (  0.5%)
Grid generation             ....       0.956 sec  (  4.6%)

Maximum memory used throughout the entire SCF-calculation: 63.5 MB

-------------------------   --------------------
FINAL SINGLE POINT ENERGY      -840.351358240767
-------------------------   --------------------

------------------------------------------------------------------------------
                         ORCA SCF GRADIENT CALCULATION
------------------------------------------------------------------------------

Gradient of the Kohn-Sham DFT energy:
Kohn-Sham wavefunction type      ... RKS
Hartree-Fock exchange scaling    ...    0.000
Number of operators              ...    1
Number of atoms                  ...    6
Basis set dimensions             ...  192
Integral neglect threshold       ... 2.5e-11
Integral primitive cutoff        ... 2.5e-12
SHARK Integral package           ... ON

Nuc. rep. gradient       (SHARK) ... done (  0.0 sec)
HCore & Overlap gradient (SHARK) ... done (  0.3 sec)
RI-J gradient            (SHARK) ... done (  2.4 sec)
Exchange-correlation gradient    ... done

------------------
CARTESIAN GRADIENT
------------------

   1   P   :   -0.000000002   -0.000197177    0.000000001
   2   F   :    0.000000002   -0.027113228   -0.000000001
   3   F   :   -0.023417065    0.013667927   -0.000000000
   4   F   :    0.023417065    0.013667925    0.000000000
   5   F   :   -0.000000000   -0.000012724   -0.021167346
   6   F   :   -0.000000000   -0.000012723    0.021167346

Difference to translation invariance:
           :    0.0000000000   -0.0000000000   -0.0000000000

Difference to rotation invariance:
           :   -0.0000000015   -0.0000000004    0.0000000024

Norm of the cartesian gradient     ...    0.0556922047
RMS gradient                       ...    0.0131267785
MAX gradient                       ...    0.0271132280

-------
TIMINGS
-------

Total SCF gradient time            ...        8.012 sec

One electron gradient       ....       0.261 sec  (  3.3%)
RI-J Coulomb gradient       ....       2.365 sec  ( 29.5%)
XC gradient                 ....       5.101 sec  ( 63.7%)

Maximum memory used throughout the entire SCFGRAD-calculation: 63.7 MB
------------------------------------------------------------------------------
                         ORCA GEOMETRY RELAXATION STEP
------------------------------------------------------------------------------

Reading the OPT-File                    .... done
Getting information on internals        .... done
Copying old internal coords+grads       .... done
Making the new internal coordinates     .... (new redundants).... done
Validating the new internal coordinates .... (new redundants).... done
Calculating the B-matrix                .... done
Calculating the G,G- and P matrices     .... done
Transforming gradient to internals      .... done
Projecting the internal gradient        .... done
Number of atoms                         ....   6
Number of internal coordinates          ....  14
Current Energy                          ....  -840.351358241 Eh
Current gradient norm                   ....     0.055692205 Eh/bohr
Maximum allowed component of the step   ....  0.300
Current trust radius                    ....  0.300
Evaluating the initial hessian          ....  (Almloef) done
Projecting the Hessian                  .... done
Forming the augmented Hessian           .... done
Diagonalizing the augmented Hessian     .... done
Last element of RFO vector              ....  0.998394575
Lowest eigenvalues of augmented Hessian:
 -0.003151027  0.571001019  0.571001019  0.571001019  0.571004963
Length of the computed step             ....  0.056732688
The final length of the internal step   ....  0.056732688
Converting the step to cartesian space:
 Initial RMS(Int)=    0.0151624487
Transforming coordinates:
 Iter   0:  RMS(Cart)=    0.0133728520 RMS(Int)=    0.0151624537
 Iter   1:  RMS(Cart)=    0.0000017114 RMS(Int)=    0.0000012314
 Iter   2:  RMS(Cart)=    0.0000000152 RMS(Int)=    0.0000000110
done
Storing new coordinates                 .... done

                                .--------------------.
          ----------------------|Geometry convergence|-------------------------
          Item                value                   Tolerance       Converged
          ---------------------------------------------------------------------
          RMS gradient        0.0148844208            0.0001000000      NO
          MAX gradient        0.0271137359            0.0003000000      NO
          RMS step            0.0151624487            0.0020000000      NO
          MAX step            0.0262523385            0.0040000000      NO
          ........................................................
          Max(Bonds)      0.0139      Max(Angles)    0.02
          Max(Dihed)        0.00      Max(Improp)    0.00
          ---------------------------------------------------------------------

The optimization has not yet converged - more geometry cycles are needed


    ---------------------------------------------------------------------------
                         Redundant Internal Coordinates
                            (Angstroem and degrees)

        Definition                    Value    dE/dq     Step     New-Value
    ----------------------------------------------------------------------------
     1. B(F   1,P   0)                1.5340 -0.027113  0.0139    1.5479   
     2. B(F   2,P   0)                1.5340 -0.027114  0.0139    1.5479   
     3. B(F   3,P   0)                1.5340 -0.027114  0.0139    1.5479   
     4. B(F   4,P   0)                1.5770 -0.021167  0.0127    1.5897   
     5. B(F   5,P   0)                1.5770 -0.021167  0.0127    1.5897   
     6. A(F   1,P   0,F   3)          120.00 -0.000124    0.01    120.01   
     7. A(F   2,P   0,F   3)          120.00  0.000248   -0.02    119.98   
     8. A(F   1,P   0,F   4)           90.00  0.000025   -0.00     90.00   
     9. A(F   2,P   0,F   4)           90.00 -0.000013    0.00     90.00   
    10. A(F   3,P   0,F   4)           90.00 -0.000013    0.00     90.00   
    11. A(F   1,P   0,F   5)           90.00  0.000025   -0.00     90.00   
    12. A(F   2,P   0,F   5)           90.00 -0.000013    0.00     90.00   
    13. A(F   3,P   0,F   5)           90.00 -0.000013    0.00     90.00   
    14. A(F   1,P   0,F   2)          120.00 -0.000124    0.01    120.01   
    ----------------------------------------------------------------------------

         *************************************************************
         *                GEOMETRY OPTIMIZATION CYCLE   2            *
         *************************************************************
---------------------------------
CARTESIAN COORDINATES (ANGSTROEM)
---------------------------------
  P      0.000000    0.000071   -0.000000
  F     -0.000000    1.547962    0.000000
  F      1.340369   -0.774157    0.000000
  F     -1.340369   -0.774157   -0.000000
  F      0.000000    0.000140    1.589694
  F      0.000000    0.000140   -1.589694

----------------------------
CARTESIAN COORDINATES (A.U.)
----------------------------
  NO LB      ZA    FRAG     MASS         X           Y           Z
   0 P    15.0000    0    30.974    0.000000    0.000133   -0.000000
   1 F     9.0000    0    18.998   -0.000000    2.925224    0.000000
   2 F     9.0000    0    18.998    2.532930   -1.462944    0.000000
   3 F     9.0000    0    18.998   -2.532930   -1.462944   -0.000000
   4 F     9.0000    0    18.998    0.000000    0.000265    3.004086
   5 F     9.0000    0    18.998    0.000000    0.000265   -3.004086

--------------------------------
INTERNAL COORDINATES (ANGSTROEM)
--------------------------------
 P      0   0   0     0.000000000000     0.00000000     0.00000000
 F      1   0   0     1.547891128610     0.00000000     0.00000000
 F      1   2   0     1.547906888176   120.01169551     0.00000000
 F      1   2   3     1.547906887657   120.01169494   180.00000000
 F      1   2   3     1.589694038209    89.99747765    89.99999985
 F      1   2   3     1.589694038117    89.99747791   269.99999995

---------------------------
INTERNAL COORDINATES (A.U.)
---------------------------
 P      0   0   0     0.000000000000     0.00000000     0.00000000
 F      1   0   0     2.925090318198     0.00000000     0.00000000
 F      1   2   0     2.925120099464   120.01169551     0.00000000
 F      1   2   3     2.925120098481   120.01169494   180.00000000
 F      1   2   3     3.004086368943    89.99747765    89.99999985
 F      1   2   3     3.004086368768    89.99747791   269.99999995

------------------------------------------------------------------------------
                   ___                                                        
                  /   \      - P O W E R E D   B Y -                         
                 /     \                                                     
                 |  |  |   _    _      __       _____    __    __             
                 |  |  |  | |  | |    /  \     |  _  \  |  |  /  |          
                  \  \/   | |  | |   /    \    | | | |  |  | /  /          
                 / \  \   | |__| |  /  /\  \   | |_| |  |  |/  /          
                |  |  |   |  __  | /  /__\  \  |    /   |      \           
                |  |  |   | |  | | |   __   |  |    \   |  |\   \          
                \     /   | |  | | |  |  |  |  | |\  \  |  | \   \       
                 \___/    |_|  |_| |__|  |__|  |_| \__\ |__|  \__/        
                                                                              
                      - O R C A' S   B I G   F R I E N D -                    
                                      &                                       
                       - I N T E G R A L  F E E D E R -                       
                                                                              
 v1 FN, 2020, v2 2021                                                         
------------------------------------------------------------------------------


Reading SHARK input file PF5_opt.SHARKINP.tmp ... ok
----------------------
SHARK INTEGRAL PACKAGE
----------------------

Number of atoms                             ...      6
Number of basis functions                   ...    192
Number of shells                            ...     68
Maximum angular momentum                    ...      3
Integral batch strategy                     ... SHARK/LIBINT Hybrid
RI-J (if used) integral strategy            ... SPLIT-RIJ (Revised 2003 algorithm where possible)
Printlevel                                  ...      1
Contraction scheme used                     ... SEGMENTED contraction
Coulomb Range Separation                    ... NOT USED
Exchange Range Separation                   ... NOT USED
Finite Nucleus Model                        ... NOT USED
Auxiliary Coulomb fitting basis             ... AVAILABLE
   # of basis functions in Aux-J            ...    296
   # of shells in Aux-J                     ...     92
   Maximum angular momentum in Aux-J        ...      4
Auxiliary J/K fitting basis                 ... NOT available
Auxiliary Correlation fitting basis         ... NOT available
Auxiliary 'external' fitting basis          ... NOT available
Integral threshold                          ...     2.500000e-11
Primitive cut-off                           ...     2.500000e-12
Primitive pair pre-selection threshold      ...     2.500000e-12

Calculating pre-screening integrals         ... done (  0.1 sec) Dimension = 68
Organizing shell pair data                  ... done (  0.1 sec)
Shell pair information
Total number of shell pairs                 ...      2346
Shell pairs after pre-screening             ...      2142
Total number of primitive shell pairs       ...      8274
Primitive shell pairs kept                  ...      5517
          la=0 lb=0:    379 shell pairs
          la=1 lb=0:    565 shell pairs
          la=1 lb=1:    209 shell pairs
          la=2 lb=0:    316 shell pairs
          la=2 lb=1:    238 shell pairs
          la=2 lb=2:     74 shell pairs
          la=3 lb=0:    152 shell pairs
          la=3 lb=1:    118 shell pairs
          la=3 lb=2:     70 shell pairs
          la=3 lb=3:     21 shell pairs

Calculating one electron integrals          ... done (  0.0 sec)
Calculating RI/J V-Matrix + Cholesky decomp.... done (  0.0 sec)
Calculating Nuclear repulsion               ... done (  0.0 sec) ENN=    405.687143701993 Eh

SHARK setup successfully completed in   0.4 seconds

Maximum memory used throughout the entire GTOINT-calculation: 51.1 MB

Diagonalization of the overlap matrix:
Smallest eigenvalue                        ... 2.112e-03
Time for diagonalization                   ...    0.007 sec
Threshold for overlap eigenvalues          ... 1.000e-08
Number of eigenvalues below threshold      ... 0
Time for construction of square roots      ...    0.006 sec
Total time needed                          ...    0.013 sec

-------------------
DFT GRID GENERATION
-------------------

General Integration Accuracy     IntAcc      ... 4.388
Radial Grid Type                 RadialGrid  ... OptM3 with GC (2021)
Angular Grid (max. ang.)         AngularGrid ... 4 (Lebedev-302)
Angular grid pruning method      GridPruning ... 4 (adaptive)
Weight generation scheme         WeightScheme... Becke
Basis function cutoff            BFCut       ... 1.0000e-11
Integration weight cutoff        WCut        ... 1.0000e-14
Angular grids for H and He will be reduced by one unit
Partially contracted basis set               ... off
Rotationally invariant grid construction     ... off

Total number of grid points                  ...    37928
Total number of batches                      ...      595
Average number of points per batch           ...       63
Average number of grid points per atom       ...     6321
Time for grid setup =    0.868 sec

--------------
SCF ITERATIONS
--------------
ITER       Energy         Delta-E        Max-DP      RMS-DP      [F,P]     Damp
               ***  Starting incremental Fock matrix formation  ***
  0   -840.3534301847   0.000000000000 0.00147236  0.00003747  0.0051852 0.7000
                      *** Initiating the SOSCF procedure ***
                      *** Re-Reading the Fockian *** 
                      *** Removing any level shift *** 
ITER      Energy       Delta-E        Grad      Rot      Max-DP    RMS-DP
  1   -840.35352420  -0.0000940160  0.001360  0.001360  0.005554  0.000111
               *** Restarting incremental Fock matrix formation ***
  2   -840.35372747  -0.0002032736  0.000713  0.000719  0.001169  0.000037
  3   -840.35372117   0.0000063027  0.001003  0.000457  0.000983  0.000020
  4   -840.35373589  -0.0000147158  0.000212  0.000315  0.001283  0.000013
  5   -840.35373542   0.0000004676  0.000215  0.000150  0.000479  0.000007
  6   -840.35373658  -0.0000011584  0.000078  0.000102  0.000468  0.000004
  7   -840.35373649   0.0000000844  0.000124  0.000069  0.000319  0.000003
  8   -840.35373663  -0.0000001406  0.000003  0.000001  0.000004  0.000000
                  ***Gradient check signals convergence***
              ***Rediagonalizing the Fockian in SOSCF/NRSCF***

               *****************************************************
               *                     SUCCESS                       *
               *           SCF CONVERGED AFTER   9 CYCLES          *
               *****************************************************

Total Energy       :         -840.35373664 Eh          -22867.18772 eV
  Last Energy change         ...   -1.0160e-08  Tolerance :   1.0000e-08
  Last MAX-Density change    ...    1.0735e-06  Tolerance :   1.0000e-07
             **** THE GBW FILE WAS UPDATED (PF5_opt.gbw) ****
             **** DENSITY PF5_opt.scfp WAS UPDATED ****
             **** ENERGY FILE WAS UPDATED (PF5_opt.en.tmp) ****
             **** THE GBW FILE WAS UPDATED (PF5_opt.gbw) ****
             **** DENSITY PF5_opt.scfp WAS UPDATED ****
Total SCF time: 0 days 0 hours 0 min 20 sec 

Maximum memory used throughout the entire SCF-calculation: 63.2 MB

-------------------------   --------------------
FINAL SINGLE POINT ENERGY      -840.353736644549
-------------------------   --------------------

------------------------------------------------------------------------------
                         ORCA SCF GRADIENT CALCULATION
------------------------------------------------------------------------------

Gradient of the Kohn-Sham DFT energy:
Kohn-Sham wavefunction type      ... RKS
Hartree-Fock exchange scaling    ...    0.000
Number of operators              ...    1
Number of atoms                  ...    6
Basis set dimensions             ...  192
Integral neglect threshold       ... 2.5e-11
Integral primitive cutoff        ... 2.5e-12
SHARK Integral package           ... ON

Nuc. rep. gradient       (SHARK) ... done (  0.0 sec)
HCore & Overlap gradient (SHARK) ... done (  0.4 sec)
RI-J gradient            (SHARK) ... done (  3.3 sec)
Exchange-correlation gradient    ... done

------------------
CARTESIAN GRADIENT
------------------

   1   P   :   -0.000000000   -0.000134171    0.000000000
   2   F   :   -0.000000001   -0.014405376    0.000000002
   3   F   :   -0.012430299    0.007288315   -0.000000001
   4   F   :    0.012430300    0.007288315   -0.000000002
   5   F   :    0.000000000   -0.000018540   -0.010258930
   6   F   :   -0.000000000   -0.000018543    0.010258931

Difference to translation invariance:
           :   -0.0000000000    0.0000000000    0.0000000000

Difference to rotation invariance:
           :    0.0000000018   -0.0000000006    0.0000000047

Norm of the cartesian gradient     ...    0.0288667383
RMS gradient                       ...    0.0068039555
MAX gradient                       ...    0.0144053759

-------
TIMINGS
-------

Total SCF gradient time            ...        7.825 sec

One electron gradient       ....       0.385 sec  (  4.9%)
RI-J Coulomb gradient       ....       3.277 sec  ( 41.9%)
XC gradient                 ....       3.996 sec  ( 51.1%)

Maximum memory used throughout the entire SCFGRAD-calculation: 62.4 MB
------------------------------------------------------------------------------
                         ORCA GEOMETRY RELAXATION STEP
------------------------------------------------------------------------------

Reading the OPT-File                    .... done
Getting information on internals        .... done
Copying old internal coords+grads       .... done
Making the new internal coordinates     .... (new redundants).... done
Validating the new internal coordinates .... (new redundants).... done
Calculating the B-matrix                .... done
Calculating the G,G- and P matrices     .... done
Transforming gradient to internals      .... done
Projecting the internal gradient        .... done
Number of atoms                         ....   6
Number of internal coordinates          ....  14
Current Energy                          ....  -840.353736645 Eh
Current gradient norm                   ....     0.028866738 Eh/bohr
Maximum allowed component of the step   ....  0.300
Current trust radius                    ....  0.300
Updating the Hessian (BFGS)             .... done
Forming the augmented Hessian           .... done
Diagonalizing the augmented Hessian     .... done
Last element of RFO vector              ....  0.998185287
Lowest eigenvalues of augmented Hessian:
 -0.001737083  0.474710644  0.571001019  0.571001019  0.571001019
Length of the computed step             ....  0.060326859
The final length of the internal step   ....  0.060326859
Converting the step to cartesian space:
 Initial RMS(Int)=    0.0161230313
Transforming coordinates:
 Iter   0:  RMS(Cart)=    0.0142216490 RMS(Int)=    0.0161230463
 Iter   1:  RMS(Cart)=    0.0000030612 RMS(Int)=    0.0000020690
 Iter   2:  RMS(Cart)=    0.0000000288 RMS(Int)=    0.0000000200
done
Storing new coordinates                 .... done

                                .--------------------.
          ----------------------|Geometry convergence|-------------------------
          Item                value                   Tolerance       Converged
          ---------------------------------------------------------------------
          Energy change      -0.0023784038            0.0000050000      NO
          RMS gradient        0.0077150430            0.0001000000      NO
          MAX gradient        0.0144091321            0.0003000000      NO
          RMS step            0.0161230313            0.0020000000      NO
          MAX step            0.0287994266            0.0040000000      NO
          ........................................................
          Max(Bonds)      0.0152      Max(Angles)    0.04
          Max(Dihed)        0.00      Max(Improp)    0.00
          ---------------------------------------------------------------------

The optimization has not yet converged - more geometry cycles are needed


    ---------------------------------------------------------------------------
                         Redundant Internal Coordinates
                            (Angstroem and degrees)

        Definition                    Value    dE/dq     Step     New-Value
    ----------------------------------------------------------------------------
     1. B(F   1,P   0)                1.5479 -0.014405  0.0152    1.5631   
     2. B(F   2,P   0)                1.5479 -0.014409  0.0152    1.5631   
     3. B(F   3,P   0)                1.5479 -0.014409  0.0152    1.5631   
     4. B(F   4,P   0)                1.5897 -0.010259  0.0127    1.6024   
     5. B(F   5,P   0)                1.5897 -0.010259  0.0127    1.6024   
     6. A(F   1,P   0,F   3)          120.01 -0.000091    0.02    120.03   
     7. A(F   2,P   0,F   3)          119.98  0.000183   -0.04    119.94   
     8. A(F   1,P   0,F   4)           90.00  0.000036   -0.01     89.99   
     9. A(F   2,P   0,F   4)           90.00 -0.000018    0.00     90.00   
    10. A(F   3,P   0,F   4)           90.00 -0.000018    0.00     90.00   
    11. A(F   1,P   0,F   5)           90.00  0.000036   -0.01     89.99   
    12. A(F   2,P   0,F   5)           90.00 -0.000018    0.00     90.00   
    13. A(F   3,P   0,F   5)           90.00 -0.000018    0.00     90.00   
    14. A(F   1,P   0,F   2)          120.01 -0.000091    0.02    120.03   
    ----------------------------------------------------------------------------

         *************************************************************
         *                GEOMETRY OPTIMIZATION CYCLE   3            *
         *************************************************************
---------------------------------
CARTESIAN COORDINATES (ANGSTROEM)
---------------------------------
  P      0.000000    0.000146   -0.000000
  F     -0.000000    1.563273   -0.000000
  F      1.353316   -0.782135    0.000000
  F     -1.353316   -0.782135    0.000000
  F     -0.000000    0.000426    1.602389
  F      0.000000    0.000426   -1.602389

----------------------------
CARTESIAN COORDINATES (A.U.)
----------------------------
  NO LB      ZA    FRAG     MASS         X           Y           Z
   0 P    15.0000    0    30.974    0.000000    0.000276   -0.000000
   1 F     9.0000    0    18.998   -0.000000    2.954157   -0.000000
   2 F     9.0000    0    18.998    2.557397   -1.478021    0.000000
   3 F     9.0000    0    18.998   -2.557397   -1.478021    0.000000
   4 F     9.0000    0    18.998   -0.000000    0.000804    3.028076
   5 F     9.0000    0    18.998    0.000000    0.000804   -3.028076

--------------------------------
INTERNAL COORDINATES (ANGSTROEM)
--------------------------------
 P      0   0   0     0.000000000000     0.00000000     0.00000000
 F      1   0   0     1.563126330349     0.00000000     0.00000000
 F      1   2   0     1.563146887716   120.02996719     0.00000000
 F      1   2   3     1.563146887846   120.02996697   180.00000000
 F      1   2   3     1.602388612269    89.99001193    89.99999986
 F      1   2   3     1.602388613467    89.99001133   269.99999981

---------------------------
INTERNAL COORDINATES (A.U.)
---------------------------
 P      0   0   0     0.000000000000     0.00000000     0.00000000
 F      1   0   0     2.953880677081     0.00000000     0.00000000
 F      1   2   0     2.953919524875   120.02996719     0.00000000
 F      1   2   3     2.953919525120   120.02996697   180.00000000
 F      1   2   3     3.028075637303    89.99001193    89.99999986
 F      1   2   3     3.028075639567    89.99001133   269.99999981

------------------------------------------------------------------------------
                   ___                                                        
                  /   \      - P O W E R E D   B Y -                         
                 /     \                                                     
                 |  |  |   _    _      __       _____    __    __             
                 |  |  |  | |  | |    /  \     |  _  \  |  |  /  |          
                  \  \/   | |  | |   /    \    | | | |  |  | /  /          
                 / \  \   | |__| |  /  /\  \   | |_| |  |  |/  /          
                |  |  |   |  __  | /  /__\  \  |    /   |      \           
                |  |  |   | |  | | |   __   |  |    \   |  |\   \          
                \     /   | |  | | |  |  |  |  | |\  \  |  | \   \       
                 \___/    |_|  |_| |__|  |__|  |_| \__\ |__|  \__/        
                                                                              
                      - O R C A' S   B I G   F R I E N D -                    
                                      &                                       
                       - I N T E G R A L  F E E D E R -                       
                                                                              
 v1 FN, 2020, v2 2021                                                         
------------------------------------------------------------------------------


Reading SHARK input file PF5_opt.SHARKINP.tmp ... ok
----------------------
SHARK INTEGRAL PACKAGE
----------------------

Number of atoms                             ...      6
Number of basis functions                   ...    192
Number of shells                            ...     68
Maximum angular momentum                    ...      3
Integral batch strategy                     ... SHARK/LIBINT Hybrid
RI-J (if used) integral strategy            ... SPLIT-RIJ (Revised 2003 algorithm where possible)
Printlevel                                  ...      1
Contraction scheme used                     ... SEGMENTED contraction
Coulomb Range Separation                    ... NOT USED
Exchange Range Separation                   ... NOT USED
Finite Nucleus Model                        ... NOT USED
Auxiliary Coulomb fitting basis             ... AVAILABLE
   # of basis functions in Aux-J            ...    296
   # of shells in Aux-J                     ...     92
   Maximum angular momentum in Aux-J        ...      4
Auxiliary J/K fitting basis                 ... NOT available
Auxiliary Correlation fitting basis         ... NOT available
Auxiliary 'external' fitting basis          ... NOT available
Integral threshold                          ...     2.500000e-11
Primitive cut-off                           ...     2.500000e-12
Primitive pair pre-selection threshold      ...     2.500000e-12

Calculating pre-screening integrals         ... done (  0.1 sec) Dimension = 68
Organizing shell pair data                  ... done (  0.1 sec)
Shell pair information
Total number of shell pairs                 ...      2346
Shell pairs after pre-screening             ...      2142
Total number of primitive shell pairs       ...      8274
Primitive shell pairs kept                  ...      5505
          la=0 lb=0:    379 shell pairs
          la=1 lb=0:    565 shell pairs
          la=1 lb=1:    209 shell pairs
          la=2 lb=0:    316 shell pairs
          la=2 lb=1:    238 shell pairs
          la=2 lb=2:     74 shell pairs
          la=3 lb=0:    152 shell pairs
          la=3 lb=1:    118 shell pairs
          la=3 lb=2:     70 shell pairs
          la=3 lb=3:     21 shell pairs

Calculating one electron integrals          ... done (  0.1 sec)
Calculating RI/J V-Matrix + Cholesky decomp.... done (  0.0 sec)
Calculating Nuclear repulsion               ... done (  0.0 sec) ENN=    402.029551806796 Eh

SHARK setup successfully completed in   0.5 seconds

Maximum memory used throughout the entire GTOINT-calculation: 51.0 MB

Diagonalization of the overlap matrix:
Smallest eigenvalue                        ... 2.181e-03
Time for diagonalization                   ...    0.007 sec
Threshold for overlap eigenvalues          ... 1.000e-08
Number of eigenvalues below threshold      ... 0
Time for construction of square roots      ...    0.004 sec
Total time needed                          ...    0.012 sec

-------------------
DFT GRID GENERATION
-------------------

General Integration Accuracy     IntAcc      ... 4.388
Radial Grid Type                 RadialGrid  ... OptM3 with GC (2021)
Angular Grid (max. ang.)         AngularGrid ... 4 (Lebedev-302)
Angular grid pruning method      GridPruning ... 4 (adaptive)
Weight generation scheme         WeightScheme... Becke
Basis function cutoff            BFCut       ... 1.0000e-11
Integration weight cutoff        WCut        ... 1.0000e-14
Angular grids for H and He will be reduced by one unit
Partially contracted basis set               ... off
Rotationally invariant grid construction     ... off

Total number of grid points                  ...    37945
[...]
  33   0.0000       0.122015         3.3202 
  34   0.0000       0.165935         4.5153 
  35   0.0000       0.168965         4.5978 
  36   0.0000       0.169083         4.6010 
  37   0.0000       0.237230         6.4554 
  38   0.0000       0.327299         8.9063 
  39   0.0000       0.327442         8.9101 
  40   0.0000       0.380153        10.3445 
  41   0.0000       0.387303        10.5391 
  42   0.0000       0.387304        10.5391 
  43   0.0000       0.436392        11.8748 
  44   0.0000       0.436507        11.8780 
  45   0.0000       0.483916        13.1680 
  46   0.0000       0.489662        13.3244 
  47   0.0000       0.536130        14.5888 
  48   0.0000       0.536471        14.5981 
  49   0.0000       0.565752        15.3949 
  50   0.0000       0.602894        16.4056 
  51   0.0000       0.603317        16.4171 
  52   0.0000       0.657651        17.8956 
  53   0.0000       0.657983        17.9046 
  54   0.0000       0.697082        18.9686 
  55   0.0000       0.697440        18.9783 
  56   0.0000       0.701799        19.0969 
  57   0.0000       0.763912        20.7871 
  58   0.0000       0.860378        23.4121 
  59   0.0000       0.860677        23.4202 
  60   0.0000       0.869317        23.6553 
  61   0.0000       0.896984        24.4082 
  62   0.0000       1.027170        27.9507 
  63   0.0000       1.027498        27.9597 
  64   0.0000       1.060840        28.8669 
  65   0.0000       1.140042        31.0221 
  66   0.0000       1.140579        31.0367 
  67   0.0000       1.233836        33.5744 
  68   0.0000       1.234102        33.5816 
  69   0.0000       1.283687        34.9309 
  70   0.0000       1.283846        34.9352 
  71   0.0000       1.308392        35.6032 
  72   0.0000       1.308543        35.6073 
  73   0.0000       1.432737        38.9868 
  74   0.0000       1.740855        47.3711 
  75   0.0000       1.741358        47.3848 
  76   0.0000       1.795908        48.8691 
  77   0.0000       1.857937        50.5570 
  78   0.0000       1.858025        50.5594 
  79   0.0000       1.875215        51.0272 
  80   0.0000       1.875594        51.0375 
  81   0.0000       2.018937        54.9381 
  82   0.0000       2.019463        54.9524 
  83   0.0000       2.019809        54.9618 
  84   0.0000       2.050081        55.7855 
  85   0.0000       2.050142        55.7872 
  86   0.0000       2.124885        57.8211 
  87   0.0000       2.151182        58.5366 
  88   0.0000       2.211961        60.1905 
  89   0.0000       2.212088        60.1940 
  90   0.0000       2.309743        62.8513 
  91   0.0000       2.310369        62.8683 
  92   0.0000       2.311162        62.8899 
  93   0.0000       2.366191        64.3873 
  94   0.0000       2.471477        67.2523 
  95   0.0000       2.471886        67.2634 
  96   0.0000       2.513362        68.3920 
  97   0.0000       2.513540        68.3969 
  98   0.0000       2.522979        68.6537 
  99   0.0000       2.613678        71.1218 
 100   0.0000       2.640511        71.8519 
 101   0.0000       2.640626        71.8551 
 102   0.0000       2.640819        71.8603 
 103   0.0000       3.066484        83.4433 
 104   0.0000       3.066658        83.4480 
 105   0.0000       3.082996        83.8926 
 106   0.0000       3.083074        83.8947 
 107   0.0000       3.218873        87.5900 
 108   0.0000       3.337150        90.8085 
 109   0.0000       3.337207        90.8100 
 110   0.0000       3.337995        90.8315 
 111   0.0000       3.452547        93.9486 
 112   0.0000       3.452689        93.9524 
 113   0.0000       3.508409        95.4687 
 114   0.0000       3.620528        98.5196 
 115   0.0000       3.621083        98.5347 
 116   0.0000       3.683407       100.2306 
 117   0.0000       3.701847       100.7324 
 118   0.0000       3.799011       103.3763 
 119   0.0000       4.092734       111.3690 
 120   0.0000       4.093400       111.3871 
 121   0.0000       4.137644       112.5910 
 122   0.0000       4.815620       131.0397 
 123   0.0000       6.369867       173.3329 
 124   0.0000       6.384266       173.7247 
 125   0.0000       6.384304       173.7257 
 126   0.0000       6.616574       180.0461 
 127   0.0000       6.616722       180.0502 
 128   0.0000       6.622047       180.1951 
 129   0.0000       6.628342       180.3663 
 130   0.0000       6.628369       180.3671 
 131   0.0000       6.644429       180.8041 
 132   0.0000       6.644481       180.8055 
 133   0.0000       6.656996       181.1461 
 134   0.0000       6.657815       181.1684 
 135   0.0000       6.657840       181.1690 
 136   0.0000       6.659398       181.2114 
 137   0.0000       6.659412       181.2118 
 138   0.0000       6.663079       181.3116 
 139   0.0000       6.691163       182.0758 
 140   0.0000       6.691269       182.0787 
 141   0.0000       6.692976       182.1251 
 142   0.0000       6.697502       182.2483 
 143   0.0000       6.700135       182.3199 
 144   0.0000       6.704866       182.4487 
 145   0.0000       6.704897       182.4495 
 146   0.0000       6.720387       182.8710 
 147   0.0000       6.720489       182.8738 
 148   0.0000       6.726753       183.0442 
 149   0.0000       6.726763       183.0445 
 150   0.0000       6.765897       184.1094 
 151   0.0000       6.873382       187.0342 
 152   0.0000       6.877050       187.1340 
 153   0.0000       6.877089       187.1351 
 154   0.0000       6.924232       188.4179 
 155   0.0000       6.934850       188.7069 
 156   0.0000       6.936057       188.7397 
 157   0.0000       6.936241       188.7447 
 158   0.0000       7.775517       211.5826 
 159   0.0000       7.791342       212.0132 
 160   0.0000       7.792130       212.0346 
 161   0.0000       8.011646       218.0080 
 162   0.0000       8.055852       219.2109 
 163   0.0000       8.056236       219.2213 
 164   0.0000       8.060623       219.3407 
 165   0.0000       8.060776       219.3449 
 166   0.0000       8.158098       221.9931 
 167   0.0000       8.158152       221.9946 
 168   0.0000       8.178411       222.5459 
 169   0.0000       8.178510       222.5486 
 170   0.0000       8.223736       223.7792 
 171   0.0000       8.271556       225.0805 
 172   0.0000       8.271675       225.0837 
 173   0.0000       8.353474       227.3096 
 174   0.0000       8.402995       228.6571 
 175   0.0000       8.410802       228.8696 
 176   0.0000       8.411772       228.8959 
 177   0.0000       8.580213       233.4795 
 178   0.0000       8.580217       233.4796 
 179   0.0000       8.593569       233.8429 
 180   0.0000       8.643313       235.1965 
 181   0.0000       8.643414       235.1992 
 182   0.0000       8.685708       236.3501 
 183   0.0000       8.796178       239.3562 
 184   0.0000       8.796762       239.3721 
 185   0.0000       9.113342       247.9866 
 186   0.0000      15.806933       430.1285 
 187   0.0000      56.244343      1530.4864 
 188   0.0000      56.317271      1532.4709 
 189   0.0000      56.317377      1532.4737 
 190   0.0000      56.707269      1543.0832 
 191   0.0000      56.718546      1543.3901 

                    ********************************
                    * MULLIKEN POPULATION ANALYSIS *
                    ********************************

-----------------------
MULLIKEN ATOMIC CHARGES
-----------------------
   0 P :    0.951031
   1 F :   -0.159908
   2 F :   -0.159912
   3 F :   -0.159912
   4 F :   -0.235649
   5 F :   -0.235649
Sum of atomic charges:    0.0000000

--------------------------------
MULLIKEN REDUCED ORBITAL CHARGES
--------------------------------
  0 P s       :     4.935125  s :     4.935125
      pz      :     2.641041  p :     7.838532
      px      :     2.598769
      py      :     2.598722
      dz2     :     0.265221  d :     1.033887
      dxz     :     0.192270
      dyz     :     0.192356
      dx2y2   :     0.192014
      dxy     :     0.192027
      f0      :     0.059368  f :     0.241426
      f+1     :     0.042086
      f-1     :     0.042105
      f+2     :     0.014481
      f-2     :     0.014554
      f+3     :     0.047132
      f-3     :     0.021701
  1 F s       :     3.899509  s :     3.899509
      pz      :     1.892147  p :     5.246118
      px      :     1.827153
      py      :     1.526818
      dz2     :     0.001920  d :     0.013807
      dxz     :     0.000112
      dyz     :     0.003254
      dx2y2   :     0.004665
      dxy     :     0.003856
      f0      :     0.000049  f :     0.000475
      f+1     :     0.000012
      f-1     :     0.000106
      f+2     :     0.000069
      f-2     :     0.000005
      f+3     :     0.000112
      f-3     :     0.000123
  2 F s       :     3.899490  s :     3.899490
      pz      :     1.892049  p :     5.246141
      px      :     1.602297
      py      :     1.751795
      dz2     :     0.001919  d :     0.013806
      dxz     :     0.002466
      dyz     :     0.000900
      dx2y2   :     0.004057
      dxy     :     0.004464
      f0      :     0.000049  f :     0.000475
      f+1     :     0.000082
      f-1     :     0.000035
      f+2     :     0.000021
      f-2     :     0.000053
      f+3     :     0.000112
      f-3     :     0.000123
  3 F s       :     3.899490  s :     3.899490
      pz      :     1.892049  p :     5.246141
      px      :     1.602297
      py      :     1.751795
      dz2     :     0.001919  d :     0.013806
      dxz     :     0.002466
      dyz     :     0.000900
      dx2y2   :     0.004057
      dxy     :     0.004464
      f0      :     0.000049  f :     0.000475
      f+1     :     0.000082
      f-1     :     0.000035
      f+2     :     0.000021
      f-2     :     0.000053
      f+3     :     0.000112
      f-3     :     0.000123
  4 F s       :     3.910908  s :     3.910908
      pz      :     1.554378  p :     5.312011
      px      :     1.878732
      py      :     1.878901
      dz2     :     0.006023  d :     0.012320
      dxz     :     0.002937
      dyz     :     0.002936
      dx2y2   :     0.000212
      dxy     :     0.000212
      f0      :     0.000195  f :     0.000411
      f+1     :     0.000098
      f-1     :     0.000098
      f+2     :     0.000008
      f-2     :     0.000008
      f+3     :     0.000001
      f-3     :     0.000002
  5 F s       :     3.910908  s :     3.910908
      pz      :     1.554378  p :     5.312011
      px      :     1.878732
      py      :     1.878901
      dz2     :     0.006023  d :     0.012320
      dxz     :     0.002937
      dyz     :     0.002936
      dx2y2   :     0.000212
      dxy     :     0.000212
      f0      :     0.000195  f :     0.000411
      f+1     :     0.000098
      f-1     :     0.000098
      f+2     :     0.000008
      f-2     :     0.000008
      f+3     :     0.000001
      f-3     :     0.000002


                     *******************************
                     * LOEWDIN POPULATION ANALYSIS *
                     *******************************

----------------------
LOEWDIN ATOMIC CHARGES
----------------------
   0 P :   -0.066401
   1 F :    0.039873
   2 F :    0.039931
   3 F :    0.039931
   4 F :   -0.026667
   5 F :   -0.026667

-------------------------------
LOEWDIN REDUCED ORBITAL CHARGES
-------------------------------
  0 P s       :     4.632739  s :     4.632739
      pz      :     2.683941  p :     7.973181
      px      :     2.644547
      py      :     2.644693
      dz2     :     0.535469  d :     1.763557
      dxz     :     0.262620
      dyz     :     0.262708
      dx2y2   :     0.351188
      dxy     :     0.351572
      f0      :     0.178995  f :     0.696924
      f+1     :     0.120583
      f-1     :     0.120671
      f+2     :     0.035827
      f-2     :     0.036022
      f+3     :     0.115632
      f-3     :     0.089194
  1 F s       :     3.686021  s :     3.686021
      pz      :     1.843205  p :     5.250908
      px      :     1.774092
      py      :     1.633612
      dz2     :     0.003896  d :     0.022399
      dxz     :     0.000134
      dyz     :     0.004311
      dx2y2   :     0.010499
      dxy     :     0.003559
      f0      :     0.000065  f :     0.000799
      f+1     :     0.000011
      f-1     :     0.000190
      f+2     :     0.000107
      f-2     :     0.000009
      f+3     :     0.000129
      f-3     :     0.000288
  2 F s       :     3.685980  s :     3.685980
      pz      :     1.843089  p :     5.250897
      px      :     1.668956
      py      :     1.738851
      dz2     :     0.003895  d :     0.022393
      dxz     :     0.003261
      dyz     :     0.001181
      dx2y2   :     0.005279
      dxy     :     0.008778
      f0      :     0.000065  f :     0.000798
      f+1     :     0.000145
      f-1     :     0.000056
      f+2     :     0.000033
      f-2     :     0.000083
      f+3     :     0.000129
      f-3     :     0.000288
  3 F s       :     3.685980  s :     3.685980
      pz      :     1.843089  p :     5.250897
      px      :     1.668956
      py      :     1.738851
      dz2     :     0.003895  d :     0.022393
      dxz     :     0.003261
      dyz     :     0.001181
      dx2y2   :     0.005279
      dxy     :     0.008778
      f0      :     0.000065  f :     0.000798
      f+1     :     0.000145
      f-1     :     0.000056
      f+2     :     0.000033
      f-2     :     0.000083
      f+3     :     0.000129
      f-3     :     0.000288
  4 F s       :     3.700422  s :     3.700422
      pz      :     1.636753  p :     5.304642
      px      :     1.833857
      py      :     1.834033
      dz2     :     0.013127  d :     0.020853
      dxz     :     0.003584
      dyz     :     0.003585
      dx2y2   :     0.000278
      dxy     :     0.000279
      f0      :     0.000429  f :     0.000750
      f+1     :     0.000149
      f-1     :     0.000149
      f+2     :     0.000010
      f-2     :     0.000010
      f+3     :     0.000001
      f-3     :     0.000003
  5 F s       :     3.700422  s :     3.700422
      pz      :     1.636753  p :     5.304642
      px      :     1.833857
      py      :     1.834033
      dz2     :     0.013127  d :     0.020853
      dxz     :     0.003584
      dyz     :     0.003585
      dx2y2   :     0.000278
      dxy     :     0.000279
      f0      :     0.000429  f :     0.000750
      f+1     :     0.000149
      f-1     :     0.000149
      f+2     :     0.000010
      f-2     :     0.000010
      f+3     :     0.000001
      f-3     :     0.000003


                      *****************************
                      * MAYER POPULATION ANALYSIS *
                      *****************************

  NA   - Mulliken gross atomic population
  ZA   - Total nuclear charge
  QA   - Mulliken gross atomic charge
  VA   - Mayer's total valence
  BVA  - Mayer's bonded valence
  FA   - Mayer's free valence

  ATOM       NA         ZA         QA         VA         BVA        FA
  0 P     14.0490    15.0000     0.9510     5.9971     5.9971     0.0000
  1 F      9.1599     9.0000    -0.1599     1.2471     1.2471    -0.0000
  2 F      9.1599     9.0000    -0.1599     1.2471     1.2471    -0.0000
  3 F      9.1599     9.0000    -0.1599     1.2471     1.2471    -0.0000
  4 F      9.2356     9.0000    -0.2356     1.2034     1.2034     0.0000
  5 F      9.2356     9.0000    -0.2356     1.2034     1.2034    -0.0000

  Mayer bond orders larger than 0.100000
B(  0-P ,  1-F ) :   1.2091 B(  0-P ,  2-F ) :   1.2092 B(  0-P ,  3-F ) :   1.2092 
B(  0-P ,  4-F ) :   1.1848 B(  0-P ,  5-F ) :   1.1848 

-------
TIMINGS
-------

Total SCF time: 0 days 0 hours 0 min 11 sec 

Total time                  ....      11.070 sec
Sum of individual times     ....      10.446 sec  ( 94.4%)

Fock matrix formation       ....       8.867 sec  ( 80.1%)
  Split-RI-J                ....       2.429 sec  ( 27.4% of F)
  XC integration            ....       6.411 sec  ( 72.3% of F)
    Basis function eval.    ....       2.089 sec  ( 32.6% of XC)
    Density eval.           ....       1.870 sec  ( 29.2% of XC)
    XC-Functional eval.     ....       0.346 sec  (  5.4% of XC)
    XC-Potential eval.      ....       1.615 sec  ( 25.2% of XC)
Diagonalization             ....       0.022 sec  (  0.2%)
Density matrix formation    ....       0.012 sec  (  0.1%)
Population analysis         ....       0.067 sec  (  0.6%)
Initial guess               ....       0.019 sec  (  0.2%)
Orbital Transformation      ....       0.000 sec  (  0.0%)
Orbital Orthonormalization  ....       0.009 sec  (  0.1%)
DIIS solution               ....       0.007 sec  (  0.1%)
SOSCF solution              ....       0.078 sec  (  0.7%)
Grid generation             ....       1.374 sec  ( 12.4%)

Maximum memory used throughout the entire SCF-calculation: 63.1 MB

-------------------------   --------------------
FINAL SINGLE POINT ENERGY      -840.354684657210
-------------------------   --------------------

                                *** OPTIMIZATION RUN DONE ***

                            ***************************************
                            *     ORCA property calculations      *
                            ***************************************

                                    ---------------------
                                    Active property flags
                                    ---------------------
   (+) Dipole Moment


------------------------------------------------------------------------------
                       ORCA ELECTRIC PROPERTIES CALCULATION
------------------------------------------------------------------------------

Dipole Moment Calculation                       ... on
Quadrupole Moment Calculation                   ... off
Polarizability Calculation                      ... off
GBWName                                         ... PF5_opt.gbw
Electron density                                ... PF5_opt.scfp
The origin for moment calculation is the CENTER OF MASS  = (-0.000000,  0.000044 -0.000000)

-------------
DIPOLE MOMENT
-------------
                                X             Y             Z
Electronic contribution:     -0.00000       0.00043       0.00000
Nuclear contribution   :     -0.00000       0.00014      -0.00000
                        -----------------------------------------
Total Dipole Moment    :     -0.00000       0.00057       0.00000
                        -----------------------------------------
Magnitude (a.u.)       :      0.00057
Magnitude (Debye)      :      0.00144



--------------------
Rotational spectrum 
--------------------
 
Rotational constants in cm-1:     0.120629     0.100784     0.100686 
Rotational constants in MHz :  3616.356650  3021.442215  3018.498656 

 Dipole components along the rotational axes: 
x,y,z [a.u.] :     0.000000     0.000567     0.000000 
x,y,z [Debye]:     0.000000     0.001441     0.000000 

 

Timings for individual modules:

Sum of individual times         ...      247.850 sec (=   4.131 min)
GTO integral calculation        ...       21.514 sec (=   0.359 min)   8.7 %
SCF iterations                  ...      138.313 sec (=   2.305 min)  55.8 %
SCF Gradient evaluation         ...       80.735 sec (=   1.346 min)  32.6 %
Geometry relaxation             ...        7.288 sec (=   0.121 min)   2.9 %
                             ****ORCA TERMINATED NORMALLY****
TOTAL RUN TIME: 0 days 0 hours 4 minutes 16 seconds 343 msec
