
                                 *****************
                                 * O   R   C   A *
                                 *****************

                                            #,                                       
                                            ###                                      
                                            ####                                     
                                            #####                                    
                                            ######                                   
                                           ########,                                 
                                     ,,################,,,,,                         
                               ,,#################################,,                 
                          ,,##########################################,,             
                       ,#########################################, ''#####,          
                    ,#############################################,,   '####,        
                  ,##################################################,,,,####,       
                ,###########''''           ''''###############################       
              ,#####''   ,,,,##########,,,,          '''####'''          '####       
            ,##' ,,,,###########################,,,                        '##       
           ' ,,###''''                  '''############,,,                           
         ,,##''                                '''############,,,,        ,,,,,,###''
      ,#''                                            '''#######################'''  
     '                                                          ''''####''''         
             ,#######,   #######,   ,#######,      ##                                
            ,#'     '#,  ##    ##  ,#'     '#,    #''#        ######   ,####,        
            ##       ##  ##   ,#'  ##            #'  '#       #        #'  '#        
            ##       ##  #######   ##           ,######,      #####,   #    #        
            '#,     ,#'  ##    ##  '#,     ,#' ,#      #,         ##   #,  ,#        
             '#######'   ##     ##  '#######'  #'      '#     #####' # '####'        



                  #######################################################
                  #                        -***-                        #
                  #          Department of theory and spectroscopy      #
                  #    Directorship and core code : Frank Neese         #
                  #        Max Planck Institute fuer Kohlenforschung    #
                  #                Kaiser Wilhelm Platz 1               #
                  #                 D-45470 Muelheim/Ruhr               #
                  #                      Germany                        #
                  #                                                     #
                  #                  All rights reserved                #
                  #                        -***-                        #
                  #######################################################



                         Program Version 5.0.4 -  RELEASE  -

 With contributions from (in alphabetic order):
   Daniel Aravena         : Magnetic Suceptibility
   Michael Atanasov       : Ab Initio Ligand Field Theory (pilot matlab implementation)
   Alexander A. Auer      : GIAO ZORA, VPT2 properties, NMR spectrum
   Ute Becker             : Parallelization
   Giovanni Bistoni       : ED, misc. LED, open-shell LED, HFLD
   Martin Brehm           : Molecular dynamics
   Dmytro Bykov           : SCF Hessian
   Vijay G. Chilkuri      : MRCI spin determinant printing, contributions to CSF-ICE
   Dipayan Datta          : RHF DLPNO-CCSD density
   Achintya Kumar Dutta   : EOM-CC, STEOM-CC
   Dmitry Ganyushin       : Spin-Orbit,Spin-Spin,Magnetic field MRCI
   Miquel Garcia          : C-PCM and meta-GGA Hessian, CC/C-PCM, Gaussian charge scheme
   Yang Guo               : DLPNO-NEVPT2, F12-NEVPT2, CIM, IAO-localization
   Andreas Hansen         : Spin unrestricted coupled pair/coupled cluster methods
   Benjamin Helmich-Paris : MC-RPA, TRAH-SCF, COSX integrals
   Lee Huntington         : MR-EOM, pCC
   Robert Izsak           : Overlap fitted RIJCOSX, COSX-SCS-MP3, EOM
   Marcus Kettner         : VPT2
   Christian Kollmar      : KDIIS, OOCD, Brueckner-CCSD(T), CCSD density, CASPT2, CASPT2-K
   Simone Kossmann        : Meta GGA functionals, TD-DFT gradient, OOMP2, MP2 Hessian
   Martin Krupicka        : Initial AUTO-CI
   Lucas Lang             : DCDCAS
   Marvin Lechner         : AUTO-CI (C++ implementation), FIC-MRCC
   Dagmar Lenk            : GEPOL surface, SMD
   Dimitrios Liakos       : Extrapolation schemes; Compound Job, initial MDCI parallelization
   Dimitrios Manganas     : Further ROCIS development; embedding schemes
   Dimitrios Pantazis     : SARC Basis sets
   Anastasios Papadopoulos: AUTO-CI, single reference methods and gradients
   Taras Petrenko         : DFT Hessian,TD-DFT gradient, ASA, ECA, R-Raman, ABS, FL, XAS/XES, NRVS
   Peter Pinski           : DLPNO-MP2, DLPNO-MP2 Gradient
   Christoph Reimann      : Effective Core Potentials
   Marius Retegan         : Local ZFS, SOC
   Christoph Riplinger    : Optimizer, TS searches, QM/MM, DLPNO-CCSD(T), (RO)-DLPNO pert. Triples
   Tobias Risthaus        : Range-separated hybrids, TD-DFT gradient, RPA, STAB
   Michael Roemelt        : Original ROCIS implementation
   Masaaki Saitow         : Open-shell DLPNO-CCSD energy and density
   Barbara Sandhoefer     : DKH picture change effects
   Avijit Sen             : IP-ROCIS
   Kantharuban Sivalingam : CASSCF convergence, NEVPT2, FIC-MRCI
   Bernardo de Souza      : ESD, SOC TD-DFT
   Georgi Stoychev        : AutoAux, RI-MP2 NMR, DLPNO-MP2 response
   Willem Van den Heuvel  : Paramagnetic NMR
   Boris Wezisla          : Elementary symmetry handling
   Frank Wennmohs         : Technical directorship


 We gratefully acknowledge several colleagues who have allowed us to
 interface, adapt or use parts of their codes:
   Stefan Grimme, W. Hujo, H. Kruse, P. Pracht,  : VdW corrections, initial TS optimization,
                  C. Bannwarth, S. Ehlert          DFT functionals, gCP, sTDA/sTD-DF
   Ed Valeev, F. Pavosevic, A. Kumar             : LibInt (2-el integral package), F12 methods
   Garnet Chan, S. Sharma, J. Yang, R. Olivares  : DMRG
   Ulf Ekstrom                                   : XCFun DFT Library
   Mihaly Kallay                                 : mrcc  (arbitrary order and MRCC methods)
   Jiri Pittner, Ondrej Demel                    : Mk-CCSD
   Frank Weinhold                                : gennbo (NPA and NBO analysis)
   Christopher J. Cramer and Donald G. Truhlar   : smd solvation model
   Lars Goerigk                                  : TD-DFT with DH, B97 family of functionals
   V. Asgeirsson, H. Jonsson                     : NEB implementation
   FAccTs GmbH                                   : IRC, NEB, NEB-TS, DLPNO-Multilevel, CI-OPT
                                                   MM, QMMM, 2- and 3-layer-ONIOM, Crystal-QMMM,
                                                   LR-CPCM, SF, NACMEs, symmetry and pop. for TD-DFT,
                                                   nearIR, NL-DFT gradient (VV10), updates on ESD,
                                                   ML-optimized integration grids
   S Lehtola, MJT Oliveira, MAL Marques          : LibXC Library
   Liviu Ungur et al                             : ANISO software


 Your calculation uses the libint2 library for the computation of 2-el integrals
 For citations please refer to: http://libint.valeyev.net

 Your ORCA version has been built with support for libXC version: 5.1.0
 For citations please refer to: https://tddft.org/programs/libxc/

 This ORCA versions uses:
   CBLAS   interface :  Fast vector & matrix operations
   LAPACKE interface :  Fast linear algebra routines
   Shared memory     :  Shared parallel matrices


================================================================================

----- Orbital basis set information -----
Your calculation utilizes the basis: def2-TZVP
   F. Weigend and R. Ahlrichs, Phys. Chem. Chem. Phys. 7, 3297 (2005).

----- AuxJ basis set information -----
Your calculation utilizes the auxiliary basis: def2/J
   F. Weigend, Phys. Chem. Chem. Phys. 8, 1057 (2006).

================================================================================
                                        WARNINGS
                       Please study these warnings very carefully!
================================================================================


INFO   : the flag for use of the SHARK integral package has been found!

================================================================================
                                       INPUT FILE
================================================================================
NAME = rough.inp
|  1> ! PBE def2-TZVP 
|  2> 
|  3> * xyz 0 1
|  4> P 0.000000    0.000438    0.000000
|  5> F 0.000000    2.959621   -0.000000
|  6> F 2.561312   -1.481482    0.000000
|  7> F-2.561312   -1.481482   -0.000000
|  8> F-0.000000    0.001453    3.027097
|  9> F-0.000000    0.001453   -3.027097
| 10> *
| 11> 
| 12>                          ****END OF INPUT****
================================================================================

                       ****************************
                       * Single Point Calculation *
                       ****************************

---------------------------------
CARTESIAN COORDINATES (ANGSTROEM)
---------------------------------
  P      0.000000    0.000438    0.000000
  F      0.000000    2.959621   -0.000000
  F      2.561312   -1.481482    0.000000
  F     -2.561312   -1.481482   -0.000000
  F     -0.000000    0.001453    3.027097
  F     -0.000000    0.001453   -3.027097

----------------------------
CARTESIAN COORDINATES (A.U.)
----------------------------
  NO LB      ZA    FRAG     MASS         X           Y           Z
   0 P    15.0000    0    30.974    0.000000    0.000828    0.000000
   1 F     9.0000    0    18.998    0.000000    5.592873   -0.000000
   2 F     9.0000    0    18.998    4.840178   -2.799595    0.000000
   3 F     9.0000    0    18.998   -4.840178   -2.799595   -0.000000
   4 F     9.0000    0    18.998   -0.000000    0.002746    5.720384
   5 F     9.0000    0    18.998   -0.000000    0.002746   -5.720384

--------------------------------
INTERNAL COORDINATES (ANGSTROEM)
--------------------------------
 P      0   0   0     0.000000000000     0.00000000     0.00000000
 F      1   0   0     2.959183000000     0.00000000     0.00000000
 F      1   2   0     2.959122513135   120.05275034     0.00000000
 F      1   2   3     2.959122513135   120.05275034   180.00000000
 F      1   2   3     3.027097170167    89.98078845    90.00000000
 F      1   2   3     3.027097170167    89.98078845   270.00000000

---------------------------
INTERNAL COORDINATES (A.U.)
---------------------------
 P      0   0   0     0.000000000000     0.00000000     0.00000000
 F      1   0   0     5.592045450155     0.00000000     0.00000000
 F      1   2   0     5.591931146546   120.05275034     0.00000000
 F      1   2   3     5.591931146546   120.05275034   180.00000000
 F      1   2   3     5.720384632384    89.98078845    90.00000000
 F      1   2   3     5.720384632384    89.98078845   270.00000000

---------------------
BASIS SET INFORMATION
---------------------
There are 2 groups of distinct atoms

 Group   1 Type P   : 14s9p3d1f contracted to 5s5p2d1f pattern {73211/51111/21/1}
 Group   2 Type F   : 11s6p2d1f contracted to 5s3p2d1f pattern {62111/411/11/1}

Atom   0P    basis set group =>   1
Atom   1F    basis set group =>   2
Atom   2F    basis set group =>   2
Atom   3F    basis set group =>   2
Atom   4F    basis set group =>   2
Atom   5F    basis set group =>   2
---------------------------------
AUXILIARY/J BASIS SET INFORMATION
---------------------------------
There are 2 groups of distinct atoms

 Group   1 Type P   : 14s5p5d2f1g contracted to 8s4p3d1f1g pattern {71111111/2111/311/2/1}
 Group   2 Type F   : 12s5p4d2f1g contracted to 6s4p3d1f1g pattern {711111/2111/211/2/1}

Atom   0P    basis set group =>   1
Atom   1F    basis set group =>   2
Atom   2F    basis set group =>   2
Atom   3F    basis set group =>   2
Atom   4F    basis set group =>   2
Atom   5F    basis set group =>   2
------------------------------------------------------------------------------
                           ORCA GTO INTEGRAL CALCULATION
                           -- RI-GTO INTEGRALS CHOSEN --
------------------------------------------------------------------------------
------------------------------------------------------------------------------
                   ___                                                        
                  /   \      - P O W E R E D   B Y -                         
                 /     \                                                     
                 |  |  |   _    _      __       _____    __    __             
                 |  |  |  | |  | |    /  \     |  _  \  |  |  /  |          
                  \  \/   | |  | |   /    \    | | | |  |  | /  /          
                 / \  \   | |__| |  /  /\  \   | |_| |  |  |/  /          
                |  |  |   |  __  | /  /__\  \  |    /   |      \           
                |  |  |   | |  | | |   __   |  |    \   |  |\   \          
                \     /   | |  | | |  |  |  |  | |\  \  |  | \   \       
                 \___/    |_|  |_| |__|  |__|  |_| \__\ |__|  \__/        
                                                                              
                      - O R C A' S   B I G   F R I E N D -                    
                                      &                                       
                       - I N T E G R A L  F E E D E R -                       
                                                                              
 v1 FN, 2020, v2 2021                                                         
------------------------------------------------------------------------------


Reading SHARK input file rough.SHARKINP.tmp ... ok
----------------------
SHARK INTEGRAL PACKAGE
----------------------

Number of atoms                             ...      6
Number of basis functions                   ...    192
Number of shells                            ...     68
Maximum angular momentum                    ...      3
Integral batch strategy                     ... SHARK/LIBINT Hybrid
RI-J (if used) integral strategy            ... SPLIT-RIJ (Revised 2003 algorithm where possible)
Printlevel                                  ...      1
Contraction scheme used                     ... SEGMENTED contraction
Coulomb Range Separation                    ... NOT USED
Exchange Range Separation                   ... NOT USED
Finite Nucleus Model                        ... NOT USED
Auxiliary Coulomb fitting basis             ... AVAILABLE
   # of basis functions in Aux-J            ...    296
   # of shells in Aux-J                     ...     92
   Maximum angular momentum in Aux-J        ...      4
Auxiliary J/K fitting basis                 ... NOT available
Auxiliary Correlation fitting basis         ... NOT available
Auxiliary 'external' fitting basis          ... NOT available
Integral threshold                          ...     1.000000e-10
Primitive cut-off                           ...     1.000000e-11
Primitive pair pre-selection threshold      ...     1.000000e-11

Calculating pre-screening integrals         ... done (  0.1 sec) Dimension = 68
Organizing shell pair data                  ... done (  0.0 sec)
Shell pair information
Total number of shell pairs                 ...      2346
Shell pairs after pre-screening             ...      1447
Total number of primitive shell pairs       ...      8274
Primitive shell pairs kept                  ...      3636
          la=0 lb=0:    265 shell pairs
          la=1 lb=0:    409 shell pairs
          la=1 lb=1:    166 shell pairs
          la=2 lb=0:    195 shell pairs
          la=2 lb=1:    162 shell pairs
          la=2 lb=2:     44 shell pairs
          la=3 lb=0:     88 shell pairs
          la=3 lb=1:     75 shell pairs
          la=3 lb=2:     32 shell pairs
          la=3 lb=3:     11 shell pairs

Calculating one electron integrals          ... done (  0.0 sec)
Calculating RI/J V-Matrix + Cholesky decomp.... done (  0.0 sec)
Calculating Nuclear repulsion               ... done (  0.0 sec) ENN=    212.547080056528 Eh

SHARK setup successfully completed in   0.5 seconds

Maximum memory used throughout the entire GTOINT-calculation: 29.9 MB
-------------------------------------------------------------------------------
                                 ORCA SCF
-------------------------------------------------------------------------------

------------
SCF SETTINGS
------------
Hamiltonian:
 Density Functional     Method          .... DFT(GTOs)
 Exchange Functional    Exchange        .... PBE
   PBE kappa parameter   XKappa         ....  0.804000
   PBE mue parameter    XMuePBE         ....  0.219520
 Correlation Functional Correlation     .... PBE
   PBE beta parameter  CBetaPBE         ....  0.066725
 LDA part of GGA corr.  LDAOpt          .... PW91-LDA
 Gradients option       PostSCFGGA      .... off
   Density functional embedding theory  .... OFF
   NL short-range parameter             ....  6.400000
 RI-approximation to the Coulomb term is turned on
   Number of AuxJ basis functions       .... 296


General Settings:
 Integral files         IntName         .... rough
 Hartree-Fock type      HFTyp           .... RHF
 Total Charge           Charge          ....    0
 Multiplicity           Mult            ....    1
 Number of Electrons    NEL             ....   60
 Basis Dimension        Dim             ....  192
 Nuclear Repulsion      ENuc            ....    212.5470800565 Eh

Convergence Acceleration:
 DIIS                   CNVDIIS         .... on
   Start iteration      DIISMaxIt       ....    12
   Startup error        DIISStart       ....  0.200000
   # of expansion vecs  DIISMaxEq       ....     5
   Bias factor          DIISBfac        ....   1.050
   Max. coefficient     DIISMaxC        ....  10.000
 Trust-Rad. Augm. Hess. CNVTRAH         .... auto
   Auto Start mean grad. ratio tolernc. ....  1.125000
   Auto Start start iteration           ....    20
   Auto Start num. interpolation iter.  ....    10
   Max. Number of Micro iterations      ....    16
   Max. Number of Macro iterations      .... Maxiter - #DIIS iter
   Number of Davidson start vectors     ....     2
   Converg. threshold I  (grad. norm)   ....   5.000e-05
   Converg. threshold II (energy diff.) ....   1.000e-06
   Grad. Scal. Fac. for Micro threshold ....   0.100
   Minimum threshold for Micro iter.    ....   0.010
   NR start threshold (gradient norm)   ....   0.001
   Initial trust radius                 ....   0.400
   Minimum AH scaling param. (alpha)    ....   1.000
   Maximum AH scaling param. (alpha)    .... 1000.000
   Orbital update algorithm             .... Taylor
   White noise on init. David. guess    .... on
   Maximum white noise                  ....   0.010
   Quad. conv. algorithm                .... NR
 SOSCF                  CNVSOSCF        .... on
   Start iteration      SOSCFMaxIt      ....   150
   Startup grad/error   SOSCFStart      ....  0.003300
 Level Shifting         CNVShift        .... on
   Level shift para.    LevelShift      ....    0.2500
   Turn off err/grad.   ShiftErr        ....    0.0010
 Zerner damping         CNVZerner       .... off
 Static damping         CNVDamp         .... on
   Fraction old density DampFac         ....    0.7000
   Max. Damping (<1)    DampMax         ....    0.9800
   Min. Damping (>=0)   DampMin         ....    0.0000
   Turn off err/grad.   DampErr         ....    0.1000
 Fernandez-Rico         CNVRico         .... off

SCF Procedure:
 Maximum # iterations   MaxIter         ....   125
 SCF integral mode      SCFMode         .... Direct
   Integral package                     .... SHARK and LIBINT hybrid scheme
 Reset frequency        DirectResetFreq ....    20
 Integral Threshold     Thresh          ....  1.000e-10 Eh
 Primitive CutOff       TCut            ....  1.000e-11 Eh

Convergence Tolerance:
 Convergence Check Mode ConvCheckMode   .... Total+1el-Energy
 Convergence forced     ConvForced      .... 0
 Energy Change          TolE            ....  1.000e-06 Eh
 1-El. energy change                    ....  1.000e-03 Eh
 Orbital Gradient       TolG            ....  5.000e-05
 Orbital Rotation angle TolX            ....  5.000e-05
 DIIS Error             TolErr          ....  1.000e-06


Diagonalization of the overlap matrix:
Smallest eigenvalue                        ... 2.362e-02
Time for diagonalization                   ...    0.010 sec
Threshold for overlap eigenvalues          ... 1.000e-08
Number of eigenvalues below threshold      ... 0
Time for construction of square roots      ...    0.009 sec
Total time needed                          ...    0.020 sec

Time for model grid setup =    0.152 sec

------------------------------
INITIAL GUESS: MODEL POTENTIAL
------------------------------
Loading Hartree-Fock densities                     ... done
Calculating cut-offs                               ... done
Initializing the effective Hamiltonian             ... done
Setting up the integral package (SHARK)            ... done
Starting the Coulomb interaction                   ... done (   0.1 sec)
Reading the grid                                   ... done
Mapping shells                                     ... done
Starting the XC term evaluation                    ... done (   0.1 sec)
  promolecular density results
     # of electrons  =     59.999959105
     EX              =    -72.004305423
     EC              =     -2.037836271
     EX+EC           =    -74.042141693
Transforming the Hamiltonian                       ... done (   0.0 sec)
Diagonalizing the Hamiltonian                      ... done (   0.0 sec)
Back transforming the eigenvectors                 ... done (   0.0 sec)
Now organizing SCF variables                       ... done
                      ------------------
                      INITIAL GUESS DONE (   0.3 sec)
                      ------------------
-------------------
DFT GRID GENERATION
-------------------

General Integration Accuracy     IntAcc      ... 4.388
Radial Grid Type                 RadialGrid  ... OptM3 with GC (2021)
Angular Grid (max. ang.)         AngularGrid ... 4 (Lebedev-302)
Angular grid pruning method      GridPruning ... 4 (adaptive)
Weight generation scheme         WeightScheme... Becke
Basis function cutoff            BFCut       ... 1.0000e-10
Integration weight cutoff        WCut        ... 1.0000e-14
Angular grids for H and He will be reduced by one unit
Partially contracted basis set               ... off
Rotationally invariant grid construction     ... off

Total number of grid points                  ...    38036
Total number of batches                      ...      597
Average number of points per batch           ...       63
Average number of grid points per atom       ...     6339
Time for grid setup =    0.433 sec

--------------
SCF ITERATIONS
--------------
ITER       Energy         Delta-E        Max-DP      RMS-DP      [F,P]     Damp
               ***  Starting incremental Fock matrix formation  ***
  0   -838.7387993680   0.000000000000 0.34021006  0.00482240  0.2422065 0.7000
  1   -838.9154619877  -0.176662619761 0.17534652  0.00305337  0.2332843 0.7000
  2   -838.6972384077   0.218223580042 0.14723054  0.00236119  0.3988117 0.7000
                               ***Turning on DIIS***
  3   -839.1158213160  -0.418582908302 0.08283547  0.00149751  0.1548850 0.7000
  4   -839.2268836615  -0.111062345519 0.06279021  0.00136664  0.1756445 0.7000
  5   -839.2598179646  -0.032934303102 0.05611691  0.00097531  0.1960042 0.7000
  6   -839.2606701912  -0.000852226592 0.04093352  0.00071831  0.2138939 0.7000
  7   -839.2647104186  -0.004040227372 0.02792514  0.00053987  0.2191737 0.7000
  8   -839.2757056785  -0.010995259878 0.05662628  0.00101585  0.2156796 0.7000
  9   -839.3215328910  -0.045827212506 0.04401826  0.00073479  0.1692538 0.7000
 10   -839.3583222946  -0.036789403594 0.05865274  0.00106419  0.1623374 0.7000
 11   -839.4268382278  -0.068515933196 0.15597880  0.00310440  0.0917147 0.0000
 12   -839.0259528185   0.400885409246 0.01133994  0.00030150  0.5856034 0.7000
 13   -838.9591382201   0.066814598438 0.02638573  0.00055313  0.6181534 0.7000
 14   -838.9485461898   0.010592030278 0.05185686  0.00080932  0.5776275 0.7000
 15   -838.9979395034  -0.049393313556 0.05255831  0.00073967  0.4626112 0.7000
 16   -839.0541000532  -0.056160549876 0.15906201  0.00364492  0.3415496 0.7000
 17   -839.0609039115  -0.006803858276 0.07001097  0.00213322  0.2083645 0.7000
 18   -838.2444484596   0.816455451863 0.06155830  0.00137983  0.4579492 0.7000
 19   -837.9009947488   0.343453710863 0.08622127  0.00135890  0.5478201 0.7000
               *** Restarting incremental Fock matrix formation ***
                                   *** Resetting DIIS ***

 WARNING: the maximum gradient error descreased on average only by a factor   0.9
          during the last 20 iterations

                      *** Initiating the TRAH-SCF procedure ***


TRAH GRID
---------

General Integration Accuracy     IntAcc      ... 3.467
Radial Grid Type                 RadialGrid  ... OptM3 with GC (2021)
Angular Grid (max. ang.)         AngularGrid ... 1 (Lebedev-50)
Angular grid pruning method      GridPruning ... 4 (adaptive)
Weight generation scheme         WeightScheme... Becke
Basis function cutoff            BFCut       ... 1.0000e-10
Integration weight cutoff        WCut        ... 1.0000e-14
Angular grids for H and He will be reduced by one unit
Partially contracted basis set               ... off
Rotationally invariant grid construction     ... off

Total number of grid points                  ...     5892
Total number of batches                      ...       96
Average number of points per batch           ...       61
Average number of grid points per atom       ...      982

 --------------------------------------------------------------------------------------------
   Iter.        energy            ||Error||_2        Shift      TRadius  Mac/Mic        Rej.
 --------------------------------------------------------------------------------------------
WARNING: 104 diagonal Hessian elements are negative!
    0       -838.388650178264     3.736917e+00                     0.400 (TRAH MAcro)   No
WARNING : negative HOMO - LUMO gap : -1.174594
    0     dE    -4.415761e-01     4.148813e+00    -8.4061e-01      0.225 (TRAH MIcro)
    0     dE    -8.888359e-01     9.695236e-01    -4.4233e+00      0.400 (TRAH MIcro)
    0     dE    -9.158084e-01     5.261031e-01    -5.0775e+00      0.400 (TRAH MIcro)
    0     dE    -9.200503e-01     2.925668e-01    -5.1562e+00      0.400 (TRAH MIcro)
    0     dE    -9.229064e-01     6.359651e-02    -5.2204e+00      0.400 (TRAH MIcro)
    0     dE    -9.228627e-01     3.988306e-02    -5.2404e+00      0.400 (TRAH MIcro)
    0     dE    -6.730952e-01     8.046609e-01    -7.0743e+00      0.275 (TRAH MIcro)
    0     dE    -6.591459e-01     1.995588e-01    -7.1313e+00      0.265 (TRAH MIcro)
    0     dE    -6.581401e-01     1.338898e-01    -7.1346e+00      0.264 (TRAH MIcro)
    0     dE    -6.576976e-01     6.930410e-02    -7.1362e+00      0.264 (TRAH MIcro)
    0     dE    -6.576175e-01     2.421592e-02    -7.1368e+00      0.264 (TRAH MIcro)
    0     dE    -6.576136e-01     1.344242e-02    -7.1369e+00      0.264 (TRAH MIcro)
    0     dE    -6.575809e-01     3.568290e-03    -7.1369e+00      0.264 (TRAH MIcro)
WARNING: 51 diagonal Hessian elements are negative!
    1       -839.019980757801     1.599421e+00                     0.480 (TRAH MAcro)   No
WARNING : negative HOMO - LUMO gap : -0.669326
    1     dE    -1.751567e-01     1.501957e+00    -3.3554e-01      0.210 (TRAH MIcro)
    1     dE    -4.892688e-01     5.215399e-01    -2.0961e+00      0.459 (TRAH MIcro)
    1     dE    -5.591254e-01     4.226940e-01    -2.6882e+00      0.480 (TRAH MIcro)
    1     dE    -3.973001e-01     1.960503e-01    -3.4058e+00      0.344 (TRAH MIcro)
    1     dE    -3.930992e-01     5.506423e-02    -3.4187e+00      0.339 (TRAH MIcro)
    1     dE    -3.911574e-01     1.814136e-02    -3.4202e+00      0.338 (TRAH MIcro)
    1     dE    -3.905617e-01     6.688887e-03    -3.4203e+00      0.337 (TRAH MIcro)
WARNING: 35 diagonal Hessian elements are negative!
    2       -839.356299054489     7.120555e-01                     0.576 (TRAH MAcro)   No
WARNING : negative HOMO - LUMO gap : -0.261108
    2     dE    -9.655353e-02     1.461415e+00    -1.8134e-01      0.255 (TRAH MIcro)
    2     dE    -1.802981e-01     8.573616e-01    -2.9386e-01      0.477 (TRAH MIcro)
    2     dE    -2.388989e-01     6.069292e-01    -4.1641e-01      0.576 (TRAH MIcro)
    2     dE    -2.527506e-01     2.278894e-01    -5.4721e-01      0.576 (TRAH MIcro)
    2     dE    -2.561158e-01     1.784932e-01    -6.6404e-01      0.565 (TRAH MIcro)
    2     dE    -2.662740e-01     3.002845e-01    -7.5096e-01      0.576 (TRAH MIcro)
    2     dE    -2.171194e-01     1.885062e-01    -9.3990e-01      0.454 (TRAH MIcro)
    2     dE    -2.313616e-01     1.122207e-01    -9.4659e-01      0.482 (TRAH MIcro)
    2     dE    -2.556999e-01     1.098702e-01    -9.5142e-01      0.530 (TRAH MIcro)
    2     dE    -2.816905e-01     7.791250e-02    -9.7256e-01      0.576 (TRAH MIcro)
    2     dE    -2.794360e-01     4.513771e-02    -9.8687e-01      0.570 (TRAH MIcro)
    2     dE    -2.811689e-01     3.079901e-02    -9.8718e-01      0.573 (TRAH MIcro)
    2     dE    -2.822357e-01     2.016986e-02    -9.8751e-01      0.575 (TRAH MIcro)
    2     dE    -2.829477e-01     1.682650e-02    -9.8914e-01      0.576 (TRAH MIcro)
WARNING: 22 diagonal Hessian elements are negative!
    3       -839.392098924429     1.353134e+00                     0.403 (TRAH MAcro)   No
WARNING : negative HOMO - LUMO gap : -0.119192
    3     dE    -6.384936e-02     1.285500e+00    -1.2659e-01      0.094 (TRAH MIcro)
    3     dE    -8.864564e-02     5.245615e-01    -1.7254e-01      0.166 (TRAH MIcro)
    3     dE    -9.476268e-02     1.057060e-01    -1.8391e-01      0.175 (TRAH MIcro)
    3     dE    -9.670628e-02     1.054521e-01    -1.8679e-01      0.188 (TRAH MIcro)
    3     dE    -9.881563e-02     6.645777e-02    -1.8934e-01      0.209 (TRAH MIcro)
    3     dE    -1.028278e-01     1.450265e-01    -1.9259e-01      0.261 (TRAH MIcro)
    3     dE    -1.069030e-01     1.817379e-01    -1.9483e-01      0.312 (TRAH MIcro)
    3     dE    -1.172641e-01     1.302802e-01    -2.3957e-01      0.403 (TRAH MIcro)
    3     dE    -1.185975e-01     1.869599e-01    -2.9733e-01      0.389 (TRAH MIcro)
    3     dE    -1.051893e-01     6.969745e-02    -4.0731e-01      0.254 (TRAH MIcro)
    3     dE    -1.105417e-01     5.989833e-02    -4.0938e-01      0.297 (TRAH MIcro)
    3     dE    -9.708533e-02     8.801983e-02    -6.7631e-01      0.176 (TRAH MIcro)
    3     dE    -9.673261e-02     9.694296e-03    -6.7809e-01      0.171 (TRAH MIcro)
WARNING: 9 diagonal Hessian elements are negative!
    4       -839.492382554374     2.017608e-01                     0.484 (TRAH MAcro)   No
WARNING : negative HOMO - LUMO gap : -0.038156
    4     dE    -3.850946e-03     3.589057e-01    -7.6907e-03      0.038 (TRAH MIcro)
    4     dE    -7.165810e-03     3.403205e-01    -1.4160e-02      0.110 (TRAH MIcro)
    4     dE    -1.190426e-02     1.720163e-01    -2.2681e-02      0.223 (TRAH MIcro)
    4     dE    -1.243189e-02     1.361454e-01    -2.3561e-02      0.235 (TRAH MIcro)
    4     dE    -1.275232e-02     6.708094e-02    -2.4097e-02      0.242 (TRAH MIcro)
    4     dE    -1.287454e-02     9.827581e-02    -2.4298e-02      0.244 (TRAH MIcro)
    4     dE    -1.340972e-02     7.277127e-02    -2.5082e-02      0.263 (TRAH MIcro)
    4     dE    -1.372368e-02     1.280202e-01    -2.5504e-02      0.276 (TRAH MIcro)
    4     dE    -2.115249e-02     2.034879e-01    -5.6112e-02      0.484 (TRAH MIcro)
    4     dE    -2.312293e-02     8.549242e-02    -8.2592e-02      0.476 (TRAH MIcro)
    4     dE    -2.379251e-02     8.220289e-02    -1.0255e-01      0.456 (TRAH MIcro)
    4     dE    -2.591151e-02     2.911731e-02    -1.0824e-01      0.484 (TRAH MIcro)
    4     dE    -2.645240e-02     6.408866e-02    -1.1547e-01      0.484 (TRAH MIcro)
    4     dE    -2.699418e-02     3.656418e-02    -1.2230e-01      0.484 (TRAH MIcro)
WARNING: 16 diagonal Hessian elements are negative!
    5       -839.499930707414     4.409569e-01                     0.484 (TRAH MAcro)   No
WARNING : negative HOMO - LUMO gap : -0.083951
    5     dE    -6.789668e-03     4.052674e-01    -1.3566e-02      0.031 (TRAH MIcro)
    5     dE    -1.429791e-02     1.339674e-01    -2.7829e-02      0.166 (TRAH MIcro)
    5     dE    -1.534145e-02     1.022858e-01    -2.9699e-02      0.182 (TRAH MIcro)
    5     dE    -1.582684e-02     9.746163e-02    -3.0398e-02      0.203 (TRAH MIcro)
    5     dE    -1.732481e-02     7.590406e-02    -3.2241e-02      0.273 (TRAH MIcro)
    5     dE    -1.773503e-02     7.279210e-02    -3.2729e-02      0.289 (TRAH MIcro)
    5     dE    -2.241686e-02     3.055394e-01    -3.9307e-02      0.375 (TRAH MIcro)
    5     dE    -2.532543e-02     4.084877e-01    -4.2227e-02      0.447 (TRAH MIcro)
    5     dE    -3.006065e-02     1.186432e-01    -2.7285e-01      0.325 (TRAH MIcro)
    5     dE    -4.132012e-02     7.452698e-02    -2.9269e-01      0.409 (TRAH MIcro)
    5     dE    -4.997464e-02     4.472573e-02    -2.9825e-01      0.469 (TRAH MIcro)
    5     dE    -5.229368e-02     2.106951e-02    -3.0199e-01      0.484 (TRAH MIcro)
    5     dE    -5.240679e-02     1.979719e-02    -3.0311e-01      0.484 (TRAH MIcro)
    5     dE    -5.244310e-02     7.965209e-03    -3.0345e-01      0.484 (TRAH MIcro)
WARNING: 19 diagonal Hessian elements are negative!
    6       -839.505920093475     5.124781e-01                     0.339 (TRAH MAcro)   No
WARNING : negative HOMO - LUMO gap : -0.102943
    6     dE    -8.456933e-03     5.523896e-01    -1.6895e-02      0.033 (TRAH MIcro)
    6     dE    -1.418274e-02     1.646809e-01    -2.8012e-02      0.112 (TRAH MIcro)
    6     dE    -1.520959e-02     8.049191e-02    -3.0008e-02      0.117 (TRAH MIcro)
    6     dE    -1.557810e-02     7.952204e-02    -3.0686e-02      0.124 (TRAH MIcro)
    6     dE    -1.600806e-02     7.129317e-02    -3.1448e-02      0.134 (TRAH MIcro)
    6     dE    -1.671368e-02     5.129845e-02    -3.2663e-02      0.153 (TRAH MIcro)
    6     dE    -1.687203e-02     6.474083e-02    -3.2960e-02      0.154 (TRAH MIcro)
    6     dE    -2.413188e-02     3.041345e-01    -7.7600e-02      0.339 (TRAH MIcro)
    6     dE    -2.135403e-02     5.890509e-02    -2.8392e-01      0.189 (TRAH MIcro)
    6     dE    -2.758754e-02     9.721177e-02    -2.9703e-01      0.266 (TRAH MIcro)
    6     dE    -3.576918e-02     3.736591e-02    -3.3103e-01      0.338 (TRAH MIcro)
    6     dE    -3.598671e-02     1.679999e-02    -3.3418e-01      0.339 (TRAH MIcro)
    6     dE    -3.604401e-02     1.133163e-02    -3.3453e-01      0.339 (TRAH MIcro)
    6     dE    -3.605421e-02     3.883911e-03    -3.3467e-01      0.339 (TRAH MIcro)
WARNING: 10 diagonal Hessian elements are negative!
    7       -839.518840185836     2.803115e-01                     0.339 (TRAH MAcro)   No
WARNING : negative HOMO - LUMO gap : -0.054030
    7     dE    -2.576935e-03     2.995316e-01    -5.1521e-03      0.018 (TRAH MIcro)
    7     dE    -4.136605e-03     9.809811e-02    -8.2503e-03      0.053 (TRAH MIcro)
    7     dE    -4.465424e-03     6.635676e-02    -8.9002e-03      0.059 (TRAH MIcro)
    7     dE    -4.886292e-03     7.622191e-02    -9.7255e-03      0.070 (TRAH MIcro)
    7     dE    -5.843885e-03     4.667569e-02    -1.1499e-02      0.128 (TRAH MIcro)
    7     dE    -5.982610e-03     3.700243e-02    -1.1754e-02      0.134 (TRAH MIcro)
    7     dE    -7.241098e-03     1.186185e-01    -1.3953e-02      0.195 (TRAH MIcro)
    7     dE    -7.902117e-03     1.603910e-01    -1.4954e-02      0.238 (TRAH MIcro)
    7     dE    -1.633254e-02     1.079134e-01    -1.4978e-01      0.339 (TRAH MIcro)
    7     dE    -1.730411e-02     4.121672e-02    -1.6726e-01      0.339 (TRAH MIcro)
    7     dE    -1.781798e-02     5.800843e-02    -1.7614e-01      0.339 (TRAH MIcro)
    7     dE    -1.818815e-02     2.349900e-02    -1.8391e-01      0.339 (TRAH MIcro)
    7     dE    -1.824797e-02     1.069175e-02    -1.8533e-01      0.339 (TRAH MIcro)
    7     dE    -1.832935e-02     2.523218e-02    -1.8809e-01      0.339 (TRAH MIcro)
WARNING: 14 diagonal Hessian elements are negative!
    8       -839.521126417261     3.966930e-01                     0.237 (TRAH MAcro)   No
WARNING : negative HOMO - LUMO gap : -0.042256
    8     dE    -5.283061e-03     4.495440e-01    -1.0559e-02      0.027 (TRAH MIcro)
    8     dE    -8.085431e-03     1.628739e-01    -1.6066e-02      0.081 (TRAH MIcro)
    8     dE    -9.428844e-03     5.813711e-02    -1.8582e-02      0.122 (TRAH MIcro)
    8     dE    -1.050137e-02     6.544992e-02    -1.9925e-02      0.233 (TRAH MIcro)
    8     dE    -1.075751e-02     3.884464e-02    -3.1747e-02      0.237 (TRAH MIcro)
    8     dE    -1.085126e-02     3.553741e-02    -3.1511e-02      0.237 (TRAH MIcro)
    8     dE    -1.103853e-02     1.907426e-02    -2.7777e-02      0.237 (TRAH MIcro)
    8     dE    -1.117358e-02     3.280709e-02    -3.3576e-02      0.237 (TRAH MIcro)
    8     dE    -1.123533e-02     2.587720e-02    -3.6644e-02      0.237 (TRAH MIcro)
    8     dE    -1.131096e-02     1.388029e-02    -3.7464e-02      0.237 (TRAH MIcro)
    8     dE    -1.134427e-02     1.304349e-02    -4.0585e-02      0.237 (TRAH MIcro)
    8     dE    -1.146600e-02     3.724298e-02    -4.2192e-02      0.237 (TRAH MIcro)
    8     dE    -1.166128e-02     2.043850e-02    -5.5488e-02      0.237 (TRAH MIcro)
    8     dE    -1.168194e-02     7.208552e-03    -5.5839e-02      0.237 (TRAH MIcro)
WARNING: 8 diagonal Hessian elements are negative!
    9       -839.529580973015     9.657150e-02                     0.237 (TRAH MAcro)   No
WARNING : negative HOMO - LUMO gap : -0.026968
    9     dE    -3.813095e-04     1.314481e-01    -7.6257e-04      0.008 (TRAH MIcro)
    9     dE    -4.180478e-04     1.227297e-01    -8.3600e-04      0.011 (TRAH MIcro)
    9     dE    -1.003037e-03     8.295550e-02    -2.0024e-03      0.043 (TRAH MIcro)
    9     dE    -1.327294e-03     6.485063e-02    -2.6430e-03      0.066 (TRAH MIcro)
    9     dE    -1.643150e-03     6.850564e-02    -3.2601e-03      0.090 (TRAH MIcro)
    9     dE    -2.198593e-03     3.970475e-02    -4.3070e-03      0.145 (TRAH MIcro)
    9     dE    -2.290595e-03     3.211989e-02    -4.4832e-03      0.148 (TRAH MIcro)
    9     dE    -2.388243e-03     1.993350e-02    -4.6787e-03      0.145 (TRAH MIcro)
    9     dE    -2.610589e-03     4.103045e-02    -5.0894e-03      0.161 (TRAH MIcro)
    9     dE    -3.198856e-03     5.190136e-02    -6.0607e-03      0.236 (TRAH MIcro)
    9     dE    -3.386572e-03     1.541592e-02    -1.2788e-02      0.237 (TRAH MIcro)
    9     dE    -3.513636e-03     3.602183e-02    -1.6736e-02      0.237 (TRAH MIcro)
    9     dE    -3.782627e-03     1.982651e-02    -3.0494e-02      0.237 (TRAH MIcro)
    9     dE    -3.808947e-03     3.726823e-03    -3.2441e-02      0.237 (TRAH MIcro)
WARNING: 9 diagonal Hessian elements are negative!
   10       -839.530110325132     1.783831e-01                     0.166 (TRAH MAcro)   No
WARNING : negative HOMO - LUMO gap : -0.030842
   10     dE    -1.096234e-03     1.842592e-01    -2.1921e-03      0.012 (TRAH MIcro)
   10     dE    -1.926742e-03     2.721482e-02    -3.8496e-03      0.032 (TRAH MIcro)
   10     dE    -2.003279e-03     2.529497e-02    -4.0014e-03      0.036 (TRAH MIcro)
   10     dE    -2.180270e-03     1.141768e-02    -4.3426e-03      0.064 (TRAH MIcro)
   10     dE    -2.184462e-03     1.019114e-02    -4.3504e-03      0.065 (TRAH MIcro)
   10     dE    -2.192758e-03     4.339223e-03    -4.3653e-03      0.068 (TRAH MIcro)
WARNING: 8 diagonal Hessian elements are negative!
   11       -839.532343199970     9.334094e-03                     0.199 (TRAH MAcro)   No
WARNING : negative HOMO - LUMO gap : -0.017076
   11     dE    -5.574367e-06     2.191032e-02    -1.1149e-05      0.001 (TRAH MIcro)
   11     dE    -8.929776e-06     1.885073e-02    -1.7859e-05      0.003 (TRAH MIcro)
   11     dE    -1.016429e-05     1.574234e-02    -2.0328e-05      0.003 (TRAH MIcro)
   11     dE    -6.701261e-05     1.693261e-02    -1.3388e-04      0.033 (TRAH MIcro)
   11     dE    -9.063095e-05     1.835991e-02    -1.8096e-04      0.041 (TRAH MIcro)
   11     dE    -1.072335e-04     1.364182e-02    -2.1408e-04      0.042 (TRAH MIcro)
   11     dE    -1.125077e-04     6.099878e-03    -2.2461e-04      0.043 (TRAH MIcro)
   11     dE    -1.160641e-04     1.962529e-03    -2.3165e-04      0.045 (TRAH MIcro)
   11     dE    -1.173243e-04     4.443358e-03    -2.3416e-04      0.046 (TRAH MIcro)
   11     dE    -1.206269e-04     6.880169e-03    -2.4072e-04      0.047 (TRAH MIcro)
   11     dE    -1.327370e-04     6.483656e-03    -2.6466e-04      0.055 (TRAH MIcro)
   11     dE    -1.353404e-04     2.404367e-03    -2.6978e-04      0.058 (TRAH MIcro)
   11     dE    -1.368825e-04     3.464160e-03    -2.7282e-04      0.059 (TRAH MIcro)
   11     dE    -1.394033e-04     4.038721e-03    -2.7774e-04      0.062 (TRAH MIcro)
WARNING: 7 diagonal Hessian elements are negative!
   12       -839.532487173039     5.995984e-03                     0.239 (TRAH MAcro)   No
WARNING : negative HOMO - LUMO gap : -0.016849
   12     dE    -1.909082e-07     8.398797e-03    -3.8184e-07      0.000 (TRAH MIcro)
   12     dE    -1.002405e-06     4.744830e-03    -2.0048e-06      0.001 (TRAH MIcro)
   12     dE    -1.212355e-06     3.486305e-03    -2.4247e-06      0.001 (TRAH MIcro)
   12     dE    -1.257514e-06     3.348299e-03    -2.5150e-06      0.001 (TRAH MIcro)
   12     dE    -1.827202e-06     2.787809e-03    -3.6544e-06      0.002 (TRAH MIcro)
   12     dE    -2.583260e-06     2.161305e-03    -5.1664e-06      0.005 (TRAH MIcro)
   12     dE    -2.907141e-06     1.805807e-03    -5.8141e-06      0.006 (TRAH MIcro)
   12     dE    -3.378577e-06     1.412535e-03    -6.7569e-06      0.006 (TRAH MIcro)
   12     dE    -4.541988e-06     3.624044e-03    -9.0833e-06      0.009 (TRAH MIcro)
   12     dE    -7.518051e-06     3.507282e-03    -1.5033e-05      0.015 (TRAH MIcro)
   12     dE    -9.524049e-06     2.589733e-03    -1.9040e-05      0.020 (TRAH MIcro)
   12     dE    -1.512492e-05     6.255647e-03    -3.0208e-05      0.037 (TRAH MIcro)
   12     dE    -2.154578e-05     2.847951e-03    -4.2945e-05      0.058 (TRAH MIcro)
   12     dE    -2.300486e-05     2.351468e-03    -4.5826e-05      0.063 (TRAH MIcro)
WARNING: 7 diagonal Hessian elements are negative!
   13       -839.532504070115     8.837215e-03                     0.239 (TRAH MAcro)   No
WARNING : negative HOMO - LUMO gap : -0.016181
   13     dE    -2.546036e-06     9.981437e-03    -5.0921e-06      0.001 (TRAH MIcro)
   13     dE    -5.013185e-06     4.264037e-03    -1.0026e-05      0.002 (TRAH MIcro)
   13     dE    -7.652307e-06     6.477662e-03    -1.5304e-05      0.008 (TRAH MIcro)
   13     dE    -8.238900e-06     7.154952e-03    -1.6476e-05      0.009 (TRAH MIcro)
   13     dE    -1.020287e-05     4.980250e-03    -2.0403e-05      0.012 (TRAH MIcro)
   13     dE    -1.242204e-05     2.708546e-03    -2.4837e-05      0.016 (TRAH MIcro)
   13     dE    -1.290527e-05     1.606413e-03    -2.5803e-05      0.017 (TRAH MIcro)
   13     dE    -1.322971e-05     1.358739e-03    -2.6451e-05      0.018 (TRAH MIcro)
   13     dE    -1.372797e-05     1.958635e-03    -2.7446e-05      0.019 (TRAH MIcro)
   13     dE    -1.394036e-05     1.896917e-03    -2.7871e-05      0.019 (TRAH MIcro)
   13     dE    -1.481591e-05     1.176222e-03    -2.9621e-05      0.020 (TRAH MIcro)
   13     dE    -1.514662e-05     1.262317e-03    -3.0282e-05      0.020 (TRAH MIcro)
   13     dE    -1.711747e-05     5.076070e-03    -3.4216e-05      0.024 (TRAH MIcro)
   13     dE    -2.464704e-05     5.069075e-03    -4.9140e-05      0.056 (TRAH MIcro)
WARNING: 7 diagonal Hessian elements are negative!
   14       -839.532533238186     8.281571e-03                     0.287 (TRAH MAcro)   No
WARNING : negative HOMO - LUMO gap : -0.016375
   14     dE    -8.296256e-07     1.539973e-02    -1.6593e-06      0.000 (TRAH MIcro)
   14     dE    -2.042472e-06     8.824535e-03    -4.0849e-06      0.002 (TRAH MIcro)
   14     dE    -2.517464e-06     7.210263e-03    -5.0349e-06      0.001 (TRAH MIcro)
   14     dE    -2.626782e-06     6.282113e-03    -5.2536e-06      0.001 (TRAH MIcro)
   14     dE    -3.267859e-06     4.306571e-03    -6.5357e-06      0.003 (TRAH MIcro)
   14     dE    -3.862090e-06     1.400897e-03    -7.7241e-06      0.004 (TRAH MIcro)
   14     dE    -3.916804e-06     1.047954e-03    -7.8335e-06      0.004 (TRAH MIcro)
   14     dE    -3.999890e-06     7.347464e-04    -7.9997e-06      0.004 (TRAH MIcro)
WARNING: 7 diagonal Hessian elements are negative!
   15       -839.532537245121     7.347997e-04                           (NR   MAcro)
WARNING : negative HOMO - LUMO gap : -0.016662
   15     dE    -7.618176e-10     7.352862e-04                           (NR   MIcro)
   15     dE    -1.583813e-08     6.870728e-04                           (NR   MIcro)
   15     dE    -4.015052e-08     6.116926e-04                           (NR   MIcro)
   15     dE    -4.488269e-08     5.997589e-04                           (NR   MIcro)
   15     dE    -7.155476e-08     4.714391e-04                           (NR   MIcro)
   15     dE    -3.547522e-07     1.882993e-03                           (NR   MIcro)
   15     dE    -1.961809e-06     7.035457e-03                           (NR   MIcro)
   15     dE    -5.186219e-06     1.429523e-02                           (NR   MIcro)
   15     dE    -2.370452e-05     1.720732e-02                           (NR   MIcro)
   15     dE    -4.297431e-05     7.719212e-03                           (NR   MIcro)
   15     dE    -6.570934e-05     2.072141e-02                           (NR   MIcro)
   15     dE    -9.794526e-05     8.932430e-03                           (NR   MIcro)
   15     dE    -1.072226e-04     6.035346e-03                           (NR   MIcro)
   15     dE    -2.010028e-04     6.375894e-02                           (NR   MIcro)
   15     dE    -8.028620e-06     1.590134e-02                           (NR   MIcro)
WARNING: 7 diagonal Hessian elements are negative!
   16       -839.532525858931     2.415673e-02                     0.344 (TRAH MAcro)   No
WARNING : negative HOMO - LUMO gap : -0.016939
   16     dE    -3.130797e-06     3.354322e-02    -6.2616e-06      0.000 (TRAH MIcro)
   16     dE    -7.428027e-06     2.760072e-02    -1.4856e-05      0.002 (TRAH MIcro)
   16     dE    -1.639167e-05     1.608079e-02    -3.2783e-05      0.003 (TRAH MIcro)
   16     dE    -1.910901e-05     1.250283e-02    -3.8215e-05      0.009 (TRAH MIcro)
   16     dE    -2.129197e-05     9.415772e-03    -4.2583e-05      0.005 (TRAH MIcro)
   16     dE    -2.449263e-05     3.310723e-03    -4.8983e-05      0.006 (TRAH MIcro)
   16     dE    -2.486793e-05     2.309306e-03    -4.9734e-05      0.006 (TRAH MIcro)
WARNING: 7 diagonal Hessian elements are negative!
   17       -839.532550790584     2.310379e-03                     0.413 (TRAH MAcro)   No
WARNING : negative HOMO - LUMO gap : -0.016615
   17     dE    -3.606574e-08     3.265423e-03    -7.2149e-08      0.000 (TRAH MIcro)
   17     dE    -4.810540e-08     3.115611e-03    -9.6212e-08      0.000 (TRAH MIcro)
   17     dE    -5.168186e-08     3.195247e-03    -1.0336e-07      0.000 (TRAH MIcro)
   17     dE    -7.433115e-08     3.166646e-03    -1.4866e-07      0.000 (TRAH MIcro)
   17     dE    -1.813709e-07     2.443504e-03    -3.6274e-07      0.001 (TRAH MIcro)
   17     dE    -4.407616e-07     9.193587e-04    -8.8152e-07      0.002 (TRAH MIcro)
   17     dE    -5.368207e-07     9.707732e-04    -1.0736e-06      0.002 (TRAH MIcro)
   17     dE    -6.067836e-07     1.119883e-03    -1.2136e-06      0.002 (TRAH MIcro)
   17     dE    -6.917946e-07     1.265161e-03    -1.3836e-06      0.002 (TRAH MIcro)
   17     dE    -8.124544e-07     5.843344e-04    -1.6249e-06      0.003 (TRAH MIcro)
   17     dE    -8.603039e-07     7.329249e-04    -1.7206e-06      0.003 (TRAH MIcro)
   17     dE    -1.200732e-06     2.342184e-03    -2.4014e-06      0.007 (TRAH MIcro)
   17     dE    -8.300083e-05     3.742968e-02    -1.1761e-03      0.315 (TRAH MIcro)
   17     dE    -2.483304e-04     1.295733e-02    -2.5522e-03      0.412 (TRAH MIcro)
 ---------------------------------
          TRAH Step control 
 ---------------------------------
  predicted energy change = -0.000248
  actual energy  change   = 0.007654
  energy change ratio     = -30.821082
  old trust radius        = 0.412954
  new trust radius        = 0.289068
  reject step?            =  1
   18       -839.532550790584     2.415673e-02                     0.289 (TRAH MAcro)  Yes
WARNING: 7 diagonal Hessian elements are negative!
   19       -839.532550790584     2.310379e-03                     0.289 (TRAH MAcro)   No
WARNING : negative HOMO - LUMO gap : -0.016615
   19     dE    -3.590852e-08     3.269366e-03    -7.1834e-08      0.000 (TRAH MIcro)
   19     dE    -4.792331e-08     3.117424e-03    -9.5847e-08      0.000 (TRAH MIcro)
   19     dE    -5.149721e-08     3.198567e-03    -1.0299e-07      0.000 (TRAH MIcro)
   19     dE    -7.392810e-08     3.168160e-03    -1.4786e-07      0.000 (TRAH MIcro)
   19     dE    -1.811540e-07     2.447524e-03    -3.6231e-07      0.001 (TRAH MIcro)
   19     dE    -4.405006e-07     9.070536e-04    -8.8100e-07      0.002 (TRAH MIcro)
   19     dE    -5.365389e-07     9.553974e-04    -1.0731e-06      0.002 (TRAH MIcro)
   19     dE    -6.064588e-07     1.118457e-03    -1.2129e-06      0.002 (TRAH MIcro)
   19     dE    -6.914769e-07     1.274263e-03    -1.3829e-06      0.002 (TRAH MIcro)
   19     dE    -8.120611e-07     5.813245e-04    -1.6241e-06      0.003 (TRAH MIcro)
   19     dE    -8.598407e-07     7.259206e-04    -1.7197e-06      0.003 (TRAH MIcro)
   19     dE    -1.199565e-06     2.344587e-03    -2.3990e-06      0.007 (TRAH MIcro)
   19     dE    -7.324907e-05     3.425068e-02    -1.2153e-03      0.289 (TRAH MIcro)
   19     dE    -9.600648e-05     7.285469e-03    -2.8239e-03      0.235 (TRAH MIcro)
 ---------------------------------
          TRAH Step control 
 ---------------------------------
  predicted energy change = -0.000096
  actual energy  change   = 0.000791
  energy change ratio     = -8.236812
  old trust radius        = 0.289068
  new trust radius        = 0.202348
  reject step?            =  1
   20       -839.532550790584     2.415673e-02                     0.202 (TRAH MAcro)  Yes
WARNING: 7 diagonal Hessian elements are negative!
   21       -839.532550790584     2.310379e-03                     0.202 (TRAH MAcro)   No
WARNING : negative HOMO - LUMO gap : -0.016615
   21     dE    -3.596649e-08     3.266745e-03    -7.1949e-08      0.000 (TRAH MIcro)
   21     dE    -4.804977e-08     3.118729e-03    -9.6100e-08      0.000 (TRAH MIcro)
   21     dE    -5.162773e-08     3.199920e-03    -1.0326e-07      0.000 (TRAH MIcro)
   21     dE    -7.424373e-08     3.172400e-03    -1.4849e-07      0.000 (TRAH MIcro)
   21     dE    -1.813091e-07     2.442952e-03    -3.6262e-07      0.001 (TRAH MIcro)
   21     dE    -4.406229e-07     9.132447e-04    -8.8124e-07      0.002 (TRAH MIcro)
   21     dE    -5.365466e-07     9.719357e-04    -1.0731e-06      0.002 (TRAH MIcro)
   21     dE    -6.064831e-07     1.115064e-03    -1.2130e-06      0.002 (TRAH MIcro)
   21     dE    -6.915582e-07     1.270478e-03    -1.3831e-06      0.002 (TRAH MIcro)
   21     dE    -8.120975e-07     5.755709e-04    -1.6242e-06      0.003 (TRAH MIcro)
   21     dE    -8.598412e-07     7.333676e-04    -1.7197e-06      0.003 (TRAH MIcro)
   21     dE    -1.199105e-06     2.346211e-03    -2.3981e-06      0.007 (TRAH MIcro)
   21     dE    -4.342550e-05     2.341346e-02    -1.4528e-03      0.196 (TRAH MIcro)
   21     dE    -7.552896e-05     6.375943e-03    -2.9179e-03      0.202 (TRAH MIcro)
 ---------------------------------
          TRAH Step control 
 ---------------------------------
  predicted energy change = -0.000076
  actual energy  change   = 0.000417
  energy change ratio     = -5.526962
  old trust radius        = 0.202348
  new trust radius        = 0.141643
  reject step?            =  1
   22       -839.532550790584     2.415673e-02                     0.142 (TRAH MAcro)  Yes
WARNING: 7 diagonal Hessian elements are negative!
   23       -839.532550790584     2.310379e-03                     0.142 (TRAH MAcro)   No
WARNING : negative HOMO - LUMO gap : -0.016615
   23     dE    -3.610591e-08     3.269077e-03    -7.2238e-08      0.000 (TRAH MIcro)
   23     dE    -4.814098e-08     3.119027e-03    -9.6282e-08      0.000 (TRAH MIcro)
   23     dE    -5.171564e-08     3.199127e-03    -1.0343e-07      0.000 (TRAH MIcro)
   23     dE    -7.421059e-08     3.169245e-03    -1.4842e-07      0.000 (TRAH MIcro)
   23     dE    -1.814144e-07     2.445900e-03    -3.6283e-07      0.001 (TRAH MIcro)
   23     dE    -4.408558e-07     9.232747e-04    -8.8171e-07      0.002 (TRAH MIcro)
   23     dE    -5.370690e-07     9.736745e-04    -1.0741e-06      0.002 (TRAH MIcro)
   23     dE    -6.070855e-07     1.127019e-03    -1.2142e-06      0.002 (TRAH MIcro)
   23     dE    -6.919801e-07     1.263093e-03    -1.3840e-06      0.002 (TRAH MIcro)
   23     dE    -8.127510e-07     5.974584e-04    -1.6255e-06      0.003 (TRAH MIcro)
   23     dE    -8.607097e-07     7.367030e-04    -1.7214e-06      0.003 (TRAH MIcro)
   23     dE    -1.202595e-06     2.329399e-03    -2.4051e-06      0.007 (TRAH MIcro)
   23     dE    -2.917395e-05     1.664504e-02    -1.7772e-03      0.142 (TRAH MIcro)
   23     dE    -2.181199e-05     2.651135e-03    -3.9292e-03      0.086 (TRAH MIcro)
WARNING: 8 diagonal Hessian elements are negative!
   24       -839.532556813271     1.677549e-02                     0.142 (TRAH MAcro)   No
WARNING : negative HOMO - LUMO gap : -0.018326
   24     dE    -8.367046e-06     2.992174e-02    -1.6734e-05      0.001 (TRAH MIcro)
   24     dE    -1.517681e-05     8.414525e-03    -3.0353e-05      0.003 (TRAH MIcro)
   24     dE    -1.625116e-05     5.168249e-03    -3.2502e-05      0.004 (TRAH MIcro)
   24     dE    -1.662801e-05     4.106770e-03    -3.3256e-05      0.004 (TRAH MIcro)
   24     dE    -1.768629e-05     2.106969e-03    -3.5372e-05      0.004 (TRAH MIcro)
   24     dE    -1.785032e-05     2.307338e-03    -3.5700e-05      0.004 (TRAH MIcro)
   24     dE    -1.922862e-05     4.763885e-03    -3.8455e-05      0.007 (TRAH MIcro)
   24     dE    -2.003540e-05     5.764503e-03    -4.0068e-05      0.009 (TRAH MIcro)
   24     dE    -2.297477e-05     6.885277e-03    -4.5937e-05      0.017 (TRAH MIcro)
   24     dE    -2.857384e-05     7.121696e-03    -5.7098e-05      0.030 (TRAH MIcro)
   24     dE    -3.030731e-05     3.067911e-03    -6.0545e-05      0.034 (TRAH MIcro)
   24     dE    -3.203272e-05     4.913172e-03    -6.3969e-05      0.039 (TRAH MIcro)
   24     dE    -3.814445e-05     6.751300e-03    -7.6033e-05      0.058 (TRAH MIcro)
   24     dE    -4.589456e-05     6.781941e-03    -9.1145e-05      0.084 (TRAH MIcro)
WARNING: 8 diagonal Hessian elements are negative!
   25       -839.532606138826     1.177688e-02                     0.170 (TRAH MAcro)   No
WARNING : negative HOMO - LUMO gap : -0.017144
   25     dE    -1.681898e-06     2.564154e-02    -3.3638e-06      0.000 (TRAH MIcro)
   25     dE    -4.477612e-06     1.517760e-02    -8.9552e-06      0.002 (TRAH MIcro)
   25     dE    -4.576699e-06     1.529838e-02    -9.1534e-06      0.002 (TRAH MIcro)
   25     dE    -7.176186e-06     8.499103e-03    -1.4352e-05      0.002 (TRAH MIcro)
   25     dE    -1.438489e-05     4.967458e-03    -2.8767e-05      0.010 (TRAH MIcro)
   25     dE    -1.606516e-05     5.155058e-03    -3.2127e-05      0.010 (TRAH MIcro)
   25     dE    -2.175783e-05     7.924809e-03    -4.3508e-05      0.013 (TRAH MIcro)
   25     dE    -2.465330e-05     7.478168e-03    -4.9293e-05      0.016 (TRAH MIcro)
   25     dE    -2.722388e-05     5.649487e-03    -5.4430e-05      0.018 (TRAH MIcro)
   25     dE    -2.929693e-05     3.805887e-03    -5.8571e-05      0.020 (TRAH MIcro)
   25     dE    -3.343586e-05     7.210172e-03    -6.6833e-05      0.024 (TRAH MIcro)
   25     dE    -5.568179e-05     1.243934e-02    -1.1099e-04      0.058 (TRAH MIcro)
   25     dE    -7.060802e-05     5.914317e-03    -1.4023e-04      0.084 (TRAH MIcro)
   25     dE    -7.664448e-05     6.362652e-03    -1.5193e-04      0.095 (TRAH MIcro)
WARNING: 8 diagonal Hessian elements are negative!
   26       -839.532686526543     1.150022e-02                     0.204 (TRAH MAcro)   No
WARNING : negative HOMO - LUMO gap : -0.016631
   26     dE    -1.976272e-06     2.332399e-02    -3.9525e-06      0.000 (TRAH MIcro)
   26     dE    -3.101961e-06     2.020469e-02    -6.2039e-06      0.001 (TRAH MIcro)
   26     dE    -5.305214e-06     1.331277e-02    -1.0610e-05      0.002 (TRAH MIcro)
   26     dE    -7.076684e-06     8.914807e-03    -1.4153e-05      0.003 (TRAH MIcro)
   26     dE    -1.213018e-05     5.914007e-03    -2.4259e-05      0.008 (TRAH MIcro)
   26     dE    -1.344264e-05     6.165531e-03    -2.6883e-05      0.009 (TRAH MIcro)
   26     dE    -2.590146e-05     2.285204e-02    -5.1786e-05      0.018 (TRAH MIcro)
   26     dE    -3.104740e-05     2.574840e-02    -6.2062e-05      0.023 (TRAH MIcro)
   26     dE    -6.255322e-05     1.669817e-02    -1.2473e-04      0.055 (TRAH MIcro)
   26     dE    -8.038848e-05     8.874646e-03    -1.5995e-04      0.072 (TRAH MIcro)
   26     dE    -8.680077e-05     5.558397e-03    -1.7253e-04      0.079 (TRAH MIcro)
   26     dE    -9.533610e-05     1.190933e-02    -1.8919e-04      0.088 (TRAH MIcro)
   26     dE    -1.694902e-04     3.390630e-02    -3.2761e-04      0.186 (TRAH MIcro)
   26     dE    -2.597449e-04     9.839848e-03    -6.9409e-03      0.182 (TRAH MIcro)
WARNING: 9 diagonal Hessian elements are negative!
   27       -839.532902916363     3.453642e-02                     0.245 (TRAH MAcro)   No
WARNING : negative HOMO - LUMO gap : -0.018470
   27     dE    -2.892061e-05     7.381682e-02    -5.7841e-05      0.002 (TRAH MIcro)
   27     dE    -7.185584e-05     1.556119e-02    -1.4370e-04      0.007 (TRAH MIcro)
   27     dE    -7.583995e-05     1.256003e-02    -1.5167e-04      0.008 (TRAH MIcro)
   27     dE    -8.756029e-05     8.457541e-03    -1.7509e-04      0.013 (TRAH MIcro)
   27     dE    -8.983015e-05     8.663021e-03    -1.7962e-04      0.014 (TRAH MIcro)
   27     dE    -9.805711e-05     1.158573e-02    -1.9605e-04      0.018 (TRAH MIcro)
   27     dE    -1.031063e-04     1.447970e-02    -2.0612e-04      0.021 (TRAH MIcro)
   27     dE    -1.098016e-04     1.514938e-02    -2.1947e-04      0.024 (TRAH MIcro)
   27     dE    -1.127103e-04     1.343300e-02    -2.2526e-04      0.027 (TRAH MIcro)
   27     dE    -1.206955e-04     7.352013e-03    -2.4111e-04      0.034 (TRAH MIcro)
   27     dE    -1.475669e-04     3.337985e-02    -2.9415e-04      0.058 (TRAH MIcro)
   27     dE    -3.832484e-04     3.517639e-02    -2.5204e-03      0.245 (TRAH MIcro)
   27     dE    -4.622134e-04     1.775316e-02    -5.2981e-03      0.245 (TRAH MIcro)
   27     dE    -5.210719e-04     2.679327e-02    -7.4149e-03      0.245 (TRAH MIcro)
WARNING: 7 diagonal Hessian elements are negative!
   28       -839.533401720523     3.911613e-02                     0.294 (TRAH MAcro)   No
WARNING : negative HOMO - LUMO gap : -0.017281
   28     dE    -1.163473e-05     6.003027e-02    -2.3269e-05      0.001 (TRAH MIcro)
   28     dE    -1.234854e-05     5.965173e-02    -2.4697e-05      0.001 (TRAH MIcro)
   28     dE    -1.574002e-05     5.687018e-02    -3.1480e-05      0.002 (TRAH MIcro)
   28     dE    -1.909740e-05     5.319921e-02    -3.8194e-05      0.003 (TRAH MIcro)
   28     dE    -3.327783e-05     4.400117e-02    -6.6553e-05      0.006 (TRAH MIcro)
   28     dE    -6.973086e-05     9.120699e-03    -1.3942e-04      0.018 (TRAH MIcro)
   28     dE    -7.179310e-05     7.413704e-03    -1.4354e-04      0.019 (TRAH MIcro)
   28     dE    -7.706552e-05     8.486710e-03    -1.5407e-04      0.019 (TRAH MIcro)
   28     dE    -1.069657e-04     2.321386e-02    -2.1361e-04      0.039 (TRAH MIcro)
   28     dE    -2.084532e-04     3.683902e-02    -4.0994e-04      0.130 (TRAH MIcro)
   28     dE    -4.584211e-04     3.986001e-02    -1.8677e-03      0.294 (TRAH MIcro)
   28     dE    -5.437883e-04     1.116889e-02    -3.8983e-03      0.294 (TRAH MIcro)
   28     dE    -5.531706e-04     7.199134e-03    -4.1234e-03      0.294 (TRAH MIcro)
   28     dE    -5.664661e-04     1.353294e-02    -4.5240e-03      0.293 (TRAH MIcro)
WARNING: 7 diagonal Hessian elements are negative!
   29       -839.533780438906     6.872226e-02                     0.294 (TRAH MAcro)   No
WARNING : negative HOMO - LUMO gap : -0.023909
   29     dE    -1.177788e-04     1.086443e-01    -2.3555e-04      0.003 (TRAH MIcro)
   29     dE    -2.005740e-04     5.103955e-02    -4.0111e-04      0.010 (TRAH MIcro)
   29     dE    -2.041356e-04     4.942848e-02    -4.0823e-04      0.010 (TRAH MIcro)
   29     dE    -2.273623e-04     3.243096e-02    -4.5465e-04      0.013 (TRAH MIcro)
   29     dE    -2.442340e-04     1.889784e-02    -4.8829e-04      0.019 (TRAH MIcro)
   29     dE    -2.529334e-04     8.462720e-03    -5.0566e-04      0.020 (TRAH MIcro)
   29     dE    -2.546043e-04     5.888170e-03    -5.0903e-04      0.019 (TRAH MIcro)
WARNING: 6 diagonal Hessian elements are negative!
   30       -839.534037954170     6.005451e-03                     0.352 (TRAH MAcro)   No
WARNING : negative HOMO - LUMO gap : -0.015674
   30     dE    -2.154530e-07     7.964924e-03    -4.3091e-07      0.000 (TRAH MIcro)
   30     dE    -3.362116e-07     7.724744e-03    -6.7242e-07      0.000 (TRAH MIcro)
   30     dE    -5.752823e-07     7.711707e-03    -1.1506e-06      0.001 (TRAH MIcro)
   30     dE    -6.796182e-07     7.718984e-03    -1.3592e-06      0.001 (TRAH MIcro)
   30     dE    -2.427944e-06     7.793996e-03    -4.8558e-06      0.003 (TRAH MIcro)
   30     dE    -5.602095e-06     7.018300e-03    -1.1203e-05      0.008 (TRAH MIcro)
   30     dE    -7.518960e-06     6.868448e-03    -1.5037e-05      0.010 (TRAH MIcro)
   30     dE    -1.034751e-05     7.184208e-03    -2.0692e-05      0.012 (TRAH MIcro)
   30     dE    -1.947860e-05     1.422722e-02    -3.8940e-05      0.021 (TRAH MIcro)
   30     dE    -1.091129e-04     3.205916e-02    -2.1522e-04      0.118 (TRAH MIcro)
   30     dE    -4.002049e-04     1.833186e-02    -1.3644e-03      0.352 (TRAH MIcro)
   30     dE    -4.310263e-04     7.765105e-03    -1.8636e-03      0.352 (TRAH MIcro)
   30     dE    -4.721465e-04     1.971452e-02    -2.5318e-03      0.352 (TRAH MIcro)
   30     dE    -5.404761e-04     1.077860e-02    -3.7604e-03      0.350 (TRAH MIcro)
 ---------------------------------
          TRAH Step control 
 ---------------------------------
  predicted energy change = -0.000540
  actual energy  change   = 0.000085
  energy change ratio     = -0.156654
  old trust radius        = 0.352454
  new trust radius        = 0.246718
  reject step?            =  1
   31       -839.534037954170     6.872226e-02                     0.247 (TRAH MAcro)  Yes
WARNING: 6 diagonal Hessian elements are negative!
   32       -839.534037954170     6.005451e-03                     0.247 (TRAH MAcro)   No
WARNING : negative HOMO - LUMO gap : -0.015674
   32     dE    -2.103111e-07     7.937665e-03    -4.2062e-07      0.000 (TRAH MIcro)
   32     dE    -3.326459e-07     7.727570e-03    -6.6529e-07      0.000 (TRAH MIcro)
   32     dE    -5.733648e-07     7.768873e-03    -1.1467e-06      0.001 (TRAH MIcro)
   32     dE    -6.780281e-07     7.752580e-03    -1.3561e-06      0.001 (TRAH MIcro)
   32     dE    -2.402528e-06     7.812631e-03    -4.8050e-06      0.003 (TRAH MIcro)
   32     dE    -5.594463e-06     6.928476e-03    -1.1188e-05      0.008 (TRAH MIcro)
   32     dE    -7.489539e-06     6.754523e-03    -1.4978e-05      0.010 (TRAH MIcro)
   32     dE    -1.032098e-05     7.122112e-03    -2.0639e-05      0.012 (TRAH MIcro)
   32     dE    -1.942692e-05     1.419712e-02    -3.8837e-05      0.021 (TRAH MIcro)
   32     dE    -1.087245e-04     3.188717e-02    -2.1448e-04      0.118 (TRAH MIcro)
   32     dE    -3.217742e-04     1.239776e-02    -3.7438e-03      0.239 (TRAH MIcro)
   32     dE    -3.438572e-04     5.463478e-03    -4.0114e-03      0.247 (TRAH MIcro)
   32     dE    -3.642448e-04     1.372475e-02    -4.6861e-03      0.247 (TRAH MIcro)
   32     dE    -3.973913e-04     7.282876e-03    -5.8383e-03      0.247 (TRAH MIcro)
WARNING: 7 diagonal Hessian elements are negative!
   33       -839.534270552741     4.998162e-02                     0.247 (TRAH MAcro)   No
WARNING : negative HOMO - LUMO gap : -0.021435
   33     dE    -6.957725e-05     5.147622e-02    -1.3915e-04      0.003 (TRAH MIcro)
   33     dE    -7.923134e-05     4.521710e-02    -1.5846e-04      0.005 (TRAH MIcro)
   33     dE    -9.288150e-05     3.823990e-02    -1.8576e-04      0.006 (TRAH MIcro)
   33     dE    -1.109859e-04     2.698650e-02    -2.2196e-04      0.008 (TRAH MIcro)
   33     dE    -1.224502e-04     1.980801e-02    -2.4488e-04      0.010 (TRAH MIcro)
   33     dE    -1.327105e-04     1.163833e-02    -2.6539e-04      0.011 (TRAH MIcro)
   33     dE    -1.400298e-04     4.435562e-03    -2.8001e-04      0.014 (TRAH MIcro)
WARNING: 6 diagonal Hessian elements are negative!
   34       -839.534410702003     4.494361e-03                     0.296 (TRAH MAcro)   No
WARNING : negative HOMO - LUMO gap : -0.015468
   34     dE    -1.511997e-07     6.875435e-03    -3.0240e-07      0.000 (TRAH MIcro)
   34     dE    -3.076726e-07     6.987867e-03    -6.1535e-07      0.000 (TRAH MIcro)
   34     dE    -4.725391e-07     6.667268e-03    -9.4508e-07      0.001 (TRAH MIcro)
   34     dE    -5.587489e-07     6.713023e-03    -1.1175e-06      0.001 (TRAH MIcro)
   34     dE    -1.552185e-06     5.916736e-03    -3.1044e-06      0.002 (TRAH MIcro)
   34     dE    -3.916263e-06     5.441269e-03    -7.8323e-06      0.005 (TRAH MIcro)
   34     dE    -6.322486e-06     4.725096e-03    -1.2644e-05      0.009 (TRAH MIcro)
   34     dE    -9.078725e-06     5.151853e-03    -1.8155e-05      0.011 (TRAH MIcro)
   34     dE    -2.687644e-05     1.736339e-02    -5.3687e-05      0.035 (TRAH MIcro)
   34     dE    -6.348408e-05     2.467984e-02    -1.2589e-04      0.093 (TRAH MIcro)
   34     dE    -1.705723e-04     2.345713e-02    -3.2175e-04      0.246 (TRAH MIcro)
   34     dE    -2.125412e-04     4.252934e-03    -4.5601e-04      0.296 (TRAH MIcro)
   34     dE    -2.189002e-04     5.849460e-03    -5.9927e-04      0.296 (TRAH MIcro)
   34     dE    -2.416105e-04     1.230441e-02    -1.1327e-03      0.296 (TRAH MIcro)
 ---------------------------------
          TRAH Step control 
 ---------------------------------
  predicted energy change = -0.000242
  actual energy  change   = 0.000247
  energy change ratio     = -1.023698
  old trust radius        = 0.296061
  new trust radius        = 0.207243
  reject step?            =  1
   35       -839.534410702003     4.998162e-02                     0.207 (TRAH MAcro)  Yes
WARNING: 6 diagonal Hessian elements are negative!
   36       -839.534410702004     4.494361e-03                     0.207 (TRAH MAcro)   No
WARNING : negative HOMO - LUMO gap : -0.015468
   36     dE    -1.467138e-07     6.796592e-03    -2.9343e-07      0.000 (TRAH MIcro)
   36     dE    -3.036059e-07     6.919383e-03    -6.0721e-07      0.000 (TRAH MIcro)
   36     dE    -4.685426e-07     6.592976e-03    -9.3708e-07      0.001 (TRAH MIcro)
   36     dE    -5.547939e-07     6.641762e-03    -1.1096e-06      0.001 (TRAH MIcro)
   36     dE    -1.548075e-06     5.839806e-03    -3.0961e-06      0.002 (TRAH MIcro)
   36     dE    -3.909074e-06     5.375034e-03    -7.8180e-06      0.005 (TRAH MIcro)
   36     dE    -6.316630e-06     4.652552e-03    -1.2632e-05      0.009 (TRAH MIcro)
   36     dE    -9.067909e-06     5.119411e-03    -1.8134e-05      0.011 (TRAH MIcro)
   36     dE    -2.721058e-05     1.755694e-02    -5.4353e-05      0.035 (TRAH MIcro)
   36     dE    -6.683023e-05     2.480575e-02    -1.3240e-04      0.098 (TRAH MIcro)
   36     dE    -1.639609e-04     1.976104e-02    -1.2737e-03      0.207 (TRAH MIcro)
   36     dE    -1.844828e-04     2.936662e-03    -2.3518e-03      0.205 (TRAH MIcro)
   36     dE    -1.886596e-04     4.092942e-03    -2.4318e-03      0.207 (TRAH MIcro)
   36     dE    -1.996821e-04     8.430247e-03    -2.9641e-03      0.207 (TRAH MIcro)
WARNING: 7 diagonal Hessian elements are negative!
   37       -839.534494687290     4.688558e-02                     0.207 (TRAH MAcro)   No
WARNING : negative HOMO - LUMO gap : -0.021854
   37     dE    -6.232226e-05     5.595718e-02    -1.2464e-04      0.003 (TRAH MIcro)
   37     dE    -7.342840e-05     4.792190e-02    -1.4685e-04      0.004 (TRAH MIcro)
   37     dE    -8.383187e-05     3.924764e-02    -1.6766e-04      0.006 (TRAH MIcro)
   37     dE    -9.955640e-05     2.556051e-02    -1.9910e-04      0.008 (TRAH MIcro)
   37     dE    -1.082894e-04     1.686876e-02    -2.1656e-04      0.009 (TRAH MIcro)
   37     dE    -1.140651e-04     1.149459e-02    -2.2810e-04      0.012 (TRAH MIcro)
   37     dE    -1.204345e-04     4.292702e-03    -2.4082e-04      0.014 (TRAH MIcro)
WARNING: 7 diagonal Hessian elements are negative!
   38       -839.534614742359     4.247197e-03                     0.249 (TRAH MAcro)   No
WARNING : negative HOMO - LUMO gap : -0.015369
   38     dE    -9.849123e-08     5.459086e-03    -1.9703e-07      0.000 (TRAH MIcro)
   38     dE    -3.092509e-07     5.437608e-03    -6.1850e-07      0.000 (TRAH MIcro)
   38     dE    -1.052254e-06     5.844206e-03    -2.1045e-06      0.002 (TRAH MIcro)
   38     dE    -2.016143e-06     5.399033e-03    -4.0322e-06      0.004 (TRAH MIcro)
   38     dE    -2.572056e-06     4.296233e-03    -5.1439e-06      0.006 (TRAH MIcro)
   38     dE    -3.685476e-06     2.870998e-03    -7.3705e-06      0.008 (TRAH MIcro)
   38     dE    -4.710370e-06     2.452297e-03    -9.4202e-06      0.008 (TRAH MIcro)
   38     dE    -5.105729e-06     2.285167e-03    -1.0211e-05      0.008 (TRAH MIcro)
   38     dE    -7.087641e-06     3.523844e-03    -1.4174e-05      0.011 (TRAH MIcro)
   38     dE    -9.468850e-06     2.064462e-03    -1.8934e-05      0.013 (TRAH MIcro)
   38     dE    -1.070021e-05     2.560460e-03    -2.1395e-05      0.016 (TRAH MIcro)
   38     dE    -1.582896e-05     9.997056e-03    -3.1634e-05      0.028 (TRAH MIcro)
   38     dE    -5.788274e-05     1.317361e-02    -1.1340e-04      0.144 (TRAH MIcro)
   38     dE    -7.254151e-05     2.545214e-03    -1.4035e-04      0.184 (TRAH MIcro)
WARNING: 6 diagonal Hessian elements are negative!
   39       -839.534619073697     3.603718e-02                     0.174 (TRAH MAcro)   No
WARNING : negative HOMO - LUMO gap : -0.019794
   39     dE    -3.911968e-05     3.741034e-02    -7.8239e-05      0.002 (TRAH MIcro)
   39     dE    -4.557181e-05     3.230695e-02    -9.1142e-05      0.004 (TRAH MIcro)
   39     dE    -5.070361e-05     2.834971e-02    -1.0140e-04      0.006 (TRAH MIcro)
   39     dE    -6.746879e-05     1.267292e-02    -1.3492e-04      0.012 (TRAH MIcro)
   39     dE    -6.789039e-05     1.243915e-02    -1.3576e-04      0.011 (TRAH MIcro)
   39     dE    -6.987277e-05     1.008182e-02    -1.3974e-04      0.008 (TRAH MIcro)
   39     dE    -7.550018e-05     3.318929e-03    -1.5098e-04      0.012 (TRAH MIcro)
WARNING: 6 diagonal Hessian elements are negative!
   40       -839.534694560786     3.248517e-03                     0.209 (TRAH MAcro)   No
WARNING : negative HOMO - LUMO gap : -0.015388
   40     dE    -6.645568e-08     4.362542e-03    -1.3294e-07      0.000 (TRAH MIcro)
   40     dE    -2.230483e-07     4.118726e-03    -4.4610e-07      0.000 (TRAH MIcro)
   40     dE    -3.774598e-07     3.912207e-03    -7.5492e-07      0.001 (TRAH MIcro)
   40     dE    -4.710256e-07     3.721230e-03    -9.4205e-07      0.001 (TRAH MIcro)
   40     dE    -1.247414e-06     3.941907e-03    -2.4948e-06      0.002 (TRAH MIcro)
   40     dE    -2.088443e-06     3.464367e-03    -4.1768e-06      0.004 (TRAH MIcro)
   40     dE    -3.009779e-06     2.796666e-03    -6.0193e-06      0.006 (TRAH MIcro)
   40     dE    -3.298228e-06     4.282258e-04    -6.5962e-06      0.007 (TRAH MIcro)
   40     dE    -3.322311e-06     3.117143e-04    -6.6443e-06      0.007 (TRAH MIcro)
WARNING: 6 diagonal Hessian elements are negative!
   41       -839.534697858839     3.257233e-04                           (NR   MAcro)
WARNING : negative HOMO - LUMO gap : -0.015447
   41     dE    -4.407849e-10     3.352462e-04                           (NR   MIcro)
   41     dE    -9.494242e-10     3.137285e-04                           (NR   MIcro)
   41     dE    -1.082145e-09     3.113812e-04                           (NR   MIcro)
   41     dE    -1.181972e-08     2.500277e-04                           (NR   MIcro)
   41     dE    -1.249184e-08     2.426823e-04                           (NR   MIcro)
   41     dE    -2.169645e-08     2.834139e-04                           (NR   MIcro)
   41     dE    -5.616378e-08     6.274858e-04                           (NR   MIcro)
   41     dE    -3.770737e-07     2.338276e-03                           (NR   MIcro)
   41     dE    -1.806223e-06     1.943868e-03                           (NR   MIcro)
   41     dE    -2.617594e-06     6.911512e-04                           (NR   MIcro)
   41     dE    -2.703983e-06     5.645393e-04                           (NR   MIcro)
   41     dE    -2.901175e-06     1.386241e-03                           (NR   MIcro)
   41     dE    -3.132180e-06     7.149248e-04                           (NR   MIcro)
   41     dE    -3.168754e-06     1.411763e-04                           (NR   MIcro)
   41     dE    -3.169679e-06     3.316204e-05                           (NR   MIcro)
WARNING: 6 diagonal Hessian elements are negative!
   42       -839.534700626619     2.685139e-03                     0.251 (TRAH MAcro)   No
WARNING : negative HOMO - LUMO gap : -0.015092
   42     dE    -2.258654e-07     2.825133e-03    -4.5173e-07      0.000 (TRAH MIcro)
   42     dE    -2.844920e-07     2.250823e-03    -5.6898e-07      0.000 (TRAH MIcro)
   42     dE    -4.164937e-07     9.381719e-04    -8.3299e-07      0.001 (TRAH MIcro)
   42     dE    -4.194083e-07     9.077384e-04    -8.3882e-07      0.001 (TRAH MIcro)
   42     dE    -4.273928e-07     7.828709e-04    -8.5479e-07      0.001 (TRAH MIcro)
   42     dE    -4.353304e-07     6.382268e-04    -8.7066e-07      0.001 (TRAH MIcro)
   42     dE    -4.483332e-07     1.864690e-04    -8.9667e-07      0.001 (TRAH MIcro)
WARNING: 6 diagonal Hessian elements are negative!
   43       -839.534701075028     1.861255e-04                           (NR   MAcro)
WARNING : negative HOMO - LUMO gap : -0.015441
   43     dE    -9.683869e-11     1.748573e-04                           (NR   MIcro)
   43     dE    -1.283666e-09     1.393721e-04                           (NR   MIcro)
   43     dE    -1.479398e-09     1.292513e-04                           (NR   MIcro)
   43     dE    -1.667122e-09     1.156970e-04                           (NR   MIcro)
   43     dE    -1.900745e-09     1.147148e-04                           (NR   MIcro)
   43     dE    -2.648617e-09     6.536329e-05                           (NR   MIcro)
   43     dE    -2.840290e-09     2.849260e-05                           (NR   MIcro)
   43     dE    -2.982182e-09     2.924786e-05                           (NR   MIcro)
   43     dE    -4.457712e-09     1.579209e-04                           (NR   MIcro)
   43     dE    -1.066607e-08     2.123924e-04                           (NR   MIcro)
   43     dE    -1.408321e-08     7.890473e-05                           (NR   MIcro)
   43     dE    -1.436920e-08     2.416770e-05                           (NR   MIcro)
   43     dE    -1.439594e-08     7.113854e-06                           (NR   MIcro)
   43     dE    -1.442504e-08     2.116184e-05                           (NR   MIcro)
   43     dE    -1.449602e-08     1.614923e-05                           (NR   MIcro)
WARNING: 6 diagonal Hessian elements are negative!
   44       -839.534701089564     2.045146e-05                           (NR   MAcro)
WARNING : negative HOMO - LUMO gap : -0.015442

               *****************************************************
               *                     SUCCESS                       *
               *           SCF CONVERGED AFTER 539 CYCLES          *
               *****************************************************


----------------
TOTAL SCF ENERGY
----------------

Total Energy       :         -839.53470109 Eh          -22844.90063 eV

Components:
Nuclear Repulsion  :          212.54708006 Eh            5783.70009 eV
Electronic Energy  :        -1052.08178115 Eh          -28628.60071 eV
One Electron Energy:        -1590.19960654 Eh          -43271.53118 eV
Two Electron Energy:          538.11782540 Eh           14642.93046 eV

Virial components:
Potential Energy   :        -1676.31976026 Eh          -45614.97970 eV
Kinetic Energy     :          836.78505917 Eh           22770.07907 eV
Virial Ratio       :            2.00328596


DFT components:
N(Alpha)           :       29.999923499354 electrons
N(Beta)            :       29.999923499354 electrons
N(Total)           :       59.999846998707 electrons
E(X)               :      -72.052824985633 Eh       
[...]
  34   0.0000       0.082259         2.2384 
  35   0.0000       0.082356         2.2410 
  36   0.0000       0.086135         2.3438 
  37   0.0000       0.086826         2.3627 
  38   0.0000       0.089025         2.4225 
  39   0.0000       0.144869         3.9421 
  40   0.0000       0.153647         4.1809 
  41   0.0000       0.154627         4.2076 
  42   0.0000       0.156444         4.2571 
  43   0.0000       0.441881        12.0242 
  44   0.0000       0.452749        12.3199 
  45   0.0000       0.454010        12.3543 
  46   0.0000       0.454835        12.3767 
  47   0.0000       0.457840        12.4585 
  48   0.0000       0.464996        12.6532 
  49   0.0000       0.467577        12.7234 
  50   0.0000       0.469366        12.7721 
  51   0.0000       0.476593        12.9688 
  52   0.0000       0.479944        13.0599 
  53   0.0000       0.486904        13.2493 
  54   0.0000       0.491891        13.3850 
  55   0.0000       0.496061        13.4985 
  56   0.0000       0.506549        13.7839 
  57   0.0000       0.507548        13.8111 
  58   0.0000       0.561531        15.2800 
  59   0.0000       0.659588        17.9483 
  60   0.0000       0.660911        17.9843 
  61   0.0000       0.683761        18.6061 
  62   0.0000       0.690321        18.7846 
  63   0.0000       0.986264        26.8376 
  64   0.0000       0.986969        26.8568 
  65   0.0000       1.061074        28.8733 
  66   0.0000       1.061283        28.8790 
  67   0.0000       1.107900        30.1475 
  68   0.0000       1.107924        30.1481 
  69   0.0000       1.115108        30.3436 
  70   0.0000       1.115914        30.3656 
  71   0.0000       1.176522        32.0148 
  72   0.0000       1.176783        32.0219 
  73   0.0000       1.197632        32.5892 
  74   0.0000       1.207391        32.8548 
  75   0.0000       1.276671        34.7400 
  76   0.0000       1.277327        34.7578 
  77   0.0000       1.301081        35.4042 
  78   0.0000       1.849354        50.3235 
  79   0.0000       1.852519        50.4096 
  80   0.0000       1.854304        50.4582 
  81   0.0000       1.856985        50.5311 
  82   0.0000       1.858089        50.5612 
  83   0.0000       1.859285        50.5937 
  84   0.0000       1.859541        50.6007 
  85   0.0000       1.859829        50.6085 
  86   0.0000       1.860286        50.6210 
  87   0.0000       1.860415        50.6245 
  88   0.0000       1.860871        50.6369 
  89   0.0000       1.861299        50.6485 
  90   0.0000       1.861608        50.6569 
  91   0.0000       1.861626        50.6574 
  92   0.0000       1.861717        50.6599 
  93   0.0000       1.861785        50.6618 
  94   0.0000       1.863874        50.7186 
  95   0.0000       1.868909        50.8556 
  96   0.0000       1.869750        50.8785 
  97   0.0000       1.874236        51.0006 
  98   0.0000       1.883193        51.2443 
  99   0.0000       1.885466        51.3061 
 100   0.0000       1.910787        51.9952 
 101   0.0000       1.911491        52.0143 
 102   0.0000       1.930714        52.5374 
 103   0.0000       2.992729        81.4363 
 104   0.0000       2.997061        81.5542 
 105   0.0000       3.004114        81.7461 
 106   0.0000       3.004258        81.7500 
 107   0.0000       3.009992        81.9061 
 108   0.0000       3.010883        81.9303 
 109   0.0000       3.018034        82.1249 
 110   0.0000       3.024102        82.2900 
 111   0.0000       3.027657        82.3867 
 112   0.0000       3.032073        82.5069 
 113   0.0000       3.067629        83.4744 
 114   0.0000       3.069767        83.5326 
 115   0.0000       3.070457        83.5514 
 116   0.0000       3.072497        83.6069 
 117   0.0000       3.074569        83.6633 
 118   0.0000       3.394203        92.3609 
 119   0.0000       3.427580        93.2692 
 120   0.0000       3.479216        94.6743 
 121   0.0000       3.479897        94.6928 
 122   0.0000       3.490515        94.9817 
 123   0.0000       6.685751       181.9285 
 124   0.0000       6.686634       181.9526 
 125   0.0000       6.687464       181.9751 
 126   0.0000       6.687850       181.9857 
 127   0.0000       6.688192       181.9950 
 128   0.0000       6.688551       182.0047 
 129   0.0000       6.688765       182.0106 
 130   0.0000       6.689331       182.0259 
 131   0.0000       6.689403       182.0279 
 132   0.0000       6.690840       182.0670 
 133   0.0000       6.697108       182.2376 
 134   0.0000       6.697144       182.2386 
 135   0.0000       6.697504       182.2483 
 136   0.0000       6.697830       182.2572 
 137   0.0000       6.697869       182.2583 
 138   0.0000       6.698111       182.2649 
 139   0.0000       6.699432       182.3008 
 140   0.0000       6.699486       182.3023 
 141   0.0000       6.700080       182.3185 
 142   0.0000       6.700096       182.3189 
 143   0.0000       6.702704       182.3898 
 144   0.0000       6.703092       182.4004 
 145   0.0000       6.704116       182.4283 
 146   0.0000       6.704444       182.4372 
 147   0.0000       6.704836       182.4479 
 148   0.0000       6.705044       182.4535 
 149   0.0000       6.705059       182.4539 
 150   0.0000       6.705179       182.4572 
 151   0.0000       6.705403       182.4633 
 152   0.0000       6.705949       182.4781 
 153   0.0000       6.706036       182.4805 
 154   0.0000       6.707021       182.5073 
 155   0.0000       6.708769       182.5549 
 156   0.0000       6.709102       182.5640 
 157   0.0000       6.709117       182.5644 
 158   0.0000       6.811428       185.3484 
 159   0.0000       6.811805       185.3586 
 160   0.0000       6.824207       185.6961 
 161   0.0000       8.035752       218.6639 
 162   0.0000       8.037433       218.7097 
 163   0.0000       8.038940       218.7507 
 164   0.0000       8.039217       218.7582 
 165   0.0000       8.040167       218.7841 
 166   0.0000       8.043288       218.8690 
 167   0.0000       8.044997       218.9155 
 168   0.0000       8.045741       218.9357 
 169   0.0000       8.046158       218.9471 
 170   0.0000       8.046338       218.9520 
 171   0.0000       8.046958       218.9689 
 172   0.0000       8.047279       218.9776 
 173   0.0000       8.047590       218.9861 
 174   0.0000       8.047671       218.9883 
 175   0.0000       8.047860       218.9934 
 176   0.0000       8.047901       218.9945 
 177   0.0000       8.048634       219.0145 
 178   0.0000       8.052271       219.1134 
 179   0.0000       8.052773       219.1271 
 180   0.0000       8.056236       219.2213 
 181   0.0000       8.058139       219.2731 
 182   0.0000       8.063375       219.4156 
 183   0.0000       8.069029       219.5694 
 184   0.0000       8.070495       219.6093 
 185   0.0000       8.072221       219.6563 
 186   0.0000      12.526507       340.8636 
 187   0.0000      55.732608      1516.5614 
 188   0.0000      55.765762      1517.4635 
 189   0.0000      55.806448      1518.5707 
 190   0.0000      55.807124      1518.5890 
 191   0.0000      55.814312      1518.7846 

                    ********************************
                    * MULLIKEN POPULATION ANALYSIS *
                    ********************************

-----------------------
MULLIKEN ATOMIC CHARGES
-----------------------
   0 P :    0.979933
   1 F :   -0.198880
   2 F :   -0.198859
   3 F :   -0.198956
   4 F :   -0.191619
   5 F :   -0.191618
Sum of atomic charges:   -0.0000000

--------------------------------
MULLIKEN REDUCED ORBITAL CHARGES
--------------------------------
  0 P s       :     6.017877  s :     6.017877
      pz      :     2.666307  p :     7.955292
      px      :     2.639931
      py      :     2.649054
      dz2     :     0.019648  d :     0.045209
      dxz     :     0.003830
      dyz     :     0.003951
      dx2y2   :     0.008902
      dxy     :     0.008877
      f0      :     0.000365  f :     0.001689
      f+1     :     0.000239
      f-1     :     0.000248
      f+2     :     0.000052
      f-2     :     0.000038
      f+3     :     0.000195
      f-3     :     0.000551
  1 F s       :     3.998595  s :     3.998595
      pz      :     1.610231  p :     5.199949
      px      :     1.952994
      py      :     1.636725
      dz2     :     0.000057  d :     0.000326
      dxz     :     0.000000
      dyz     :     0.000038
      dx2y2   :     0.000183
      dxy     :     0.000048
      f0      :     0.000000  f :     0.000011
      f+1     :     0.000001
      f-1     :     0.000000
      f+2     :     0.000002
      f-2     :     0.000000
      f+3     :     0.000003
      f-3     :     0.000004
  2 F s       :     3.998595  s :     3.998595
      pz      :     1.610351  p :     5.199928
      px      :     1.717886
      py      :     1.871691
      dz2     :     0.000057  d :     0.000326
      dxz     :     0.000028
      dyz     :     0.000010
      dx2y2   :     0.000081
      dxy     :     0.000150
      f0      :     0.000000  f :     0.000011
      f+1     :     0.000000
      f-1     :     0.000001
      f+2     :     0.000000
      f-2     :     0.000001
      f+3     :     0.000003
      f-3     :     0.000004
  3 F s       :     3.998636  s :     3.998636
      pz      :     1.608428  p :     5.199980
      px      :     1.715666
      py      :     1.875885
      dz2     :     0.000057  d :     0.000328
      dxz     :     0.000030
      dyz     :     0.000010
      dx2y2   :     0.000081
      dxy     :     0.000150
      f0      :     0.000000  f :     0.000011
      f+1     :     0.000000
      f-1     :     0.000001
      f+2     :     0.000000
      f-2     :     0.000001
      f+3     :     0.000003
      f-3     :     0.000005
  4 F s       :     3.998796  s :     3.998796
      pz      :     1.677668  p :     5.192540
      px      :     1.654024
      py      :     1.860848
      dz2     :     0.000179  d :     0.000272
      dxz     :     0.000033
      dyz     :     0.000037
      dx2y2   :     0.000006
      dxy     :     0.000017
      f0      :     0.000002  f :     0.000011
      f+1     :     0.000001
      f-1     :     0.000001
      f+2     :     0.000000
      f-2     :     0.000001
      f+3     :     0.000003
      f-3     :     0.000002
  5 F s       :     3.998796  s :     3.998796
      pz      :     1.677675  p :     5.192539
      px      :     1.653672
      py      :     1.861192
      dz2     :     0.000179  d :     0.000272
      dxz     :     0.000033
      dyz     :     0.000037
      dx2y2   :     0.000006
      dxy     :     0.000017
      f0      :     0.000002  f :     0.000011
      f+1     :     0.000001
      f-1     :     0.000001
      f+2     :     0.000000
      f-2     :     0.000001
      f+3     :     0.000003
      f-3     :     0.000002


                     *******************************
                     * LOEWDIN POPULATION ANALYSIS *
                     *******************************

----------------------
LOEWDIN ATOMIC CHARGES
----------------------
   0 P :    0.940784
   1 F :   -0.190768
   2 F :   -0.190747
   3 F :   -0.190777
   4 F :   -0.184246
   5 F :   -0.184245

-------------------------------
LOEWDIN REDUCED ORBITAL CHARGES
-------------------------------
  0 P s       :     6.002223  s :     6.002223
      pz      :     2.680163  p :     7.993433
      px      :     2.652131
      py      :     2.661139
      dz2     :     0.027845  d :     0.060770
      dxz     :     0.004282
      dyz     :     0.004409
      dx2y2   :     0.012132
      dxy     :     0.012102
      f0      :     0.000626  f :     0.002791
      f+1     :     0.000369
      f-1     :     0.000385
      f+2     :     0.000072
      f-2     :     0.000052
      f+3     :     0.000266
      f-3     :     0.001022
  1 F s       :     3.992260  s :     3.992260
      pz      :     1.610193  p :     5.198170
      px      :     1.952771
      py      :     1.635206
      dz2     :     0.000060  d :     0.000327
      dxz     :     0.000000
      dyz     :     0.000037
      dx2y2   :     0.000184
      dxy     :     0.000046
      f0      :     0.000000  f :     0.000011
      f+1     :     0.000001
      f-1     :     0.000000
      f+2     :     0.000002
      f-2     :     0.000000
      f+3     :     0.000003
      f-3     :     0.000004
  2 F s       :     3.992259  s :     3.992259
      pz      :     1.610314  p :     5.198149
      px      :     1.716698
      py      :     1.871137
      dz2     :     0.000060  d :     0.000327
      dxz     :     0.000028
      dyz     :     0.000010
      dx2y2   :     0.000080
      dxy     :     0.000150
      f0      :     0.000000  f :     0.000011
      f+1     :     0.000000
      f-1     :     0.000001
      f+2     :     0.000000
      f-2     :     0.000001
      f+3     :     0.000003
      f-3     :     0.000004
  3 F s       :     3.992242  s :     3.992242
      pz      :     1.608492  p :     5.198196
      px      :     1.714385
      py      :     1.875319
      dz2     :     0.000060  d :     0.000328
      dxz     :     0.000029
      dyz     :     0.000010
      dx2y2   :     0.000080
      dxy     :     0.000149
      f0      :     0.000000  f :     0.000011
      f+1     :     0.000000
      f-1     :     0.000001
      f+2     :     0.000000
      f-2     :     0.000001
      f+3     :     0.000003
      f-3     :     0.000004
  4 F s       :     3.993573  s :     3.993573
      pz      :     1.675608  p :     5.190396
      px      :     1.653991
      py      :     1.860797
      dz2     :     0.000175  d :     0.000266
      dxz     :     0.000033
      dyz     :     0.000036
      dx2y2   :     0.000006
      dxy     :     0.000017
      f0      :     0.000002  f :     0.000011
      f+1     :     0.000001
      f-1     :     0.000001
      f+2     :     0.000000
      f-2     :     0.000001
      f+3     :     0.000003
      f-3     :     0.000002
  5 F s       :     3.993573  s :     3.993573
      pz      :     1.675615  p :     5.190394
      px      :     1.653638
      py      :     1.861141
      dz2     :     0.000175  d :     0.000266
      dxz     :     0.000033
      dyz     :     0.000036
      dx2y2   :     0.000006
      dxy     :     0.000017
      f0      :     0.000002  f :     0.000011
      f+1     :     0.000001
      f-1     :     0.000001
      f+2     :     0.000000
      f-2     :     0.000001
      f+3     :     0.000003
      f-3     :     0.000002


                      *****************************
                      * MAYER POPULATION ANALYSIS *
                      *****************************

  NA   - Mulliken gross atomic population
  ZA   - Total nuclear charge
  QA   - Mulliken gross atomic charge
  VA   - Mayer's total valence
  BVA  - Mayer's bonded valence
  FA   - Mayer's free valence

  ATOM       NA         ZA         QA         VA         BVA        FA
  0 P     14.0201    15.0000     0.9799     2.7637     2.7637    -0.0000
  1 F      9.1989     9.0000    -0.1989     1.3125     1.3125    -0.0000
  2 F      9.1989     9.0000    -0.1989     1.3124     1.3124     0.0000
  3 F      9.1990     9.0000    -0.1990     1.3102     1.3102     0.0000
  4 F      9.1916     9.0000    -0.1916     1.3035     1.3035     0.0000
  5 F      9.1916     9.0000    -0.1916     1.3035     1.3035     0.0000

  Mayer bond orders larger than 0.100000
B(  0-P ,  1-F ) :   0.5809 B(  0-P ,  2-F ) :   0.5811 B(  0-P ,  3-F ) :   0.5931 
B(  0-P ,  4-F ) :   0.5044 B(  0-P ,  5-F ) :   0.5043 B(  1-F ,  2-F ) :   0.2008 
B(  1-F ,  3-F ) :   0.1814 B(  1-F ,  4-F ) :   0.1747 B(  1-F ,  5-F ) :   0.1747 
B(  2-F ,  3-F ) :   0.1812 B(  2-F ,  4-F ) :   0.1747 B(  2-F ,  5-F ) :   0.1747 
B(  3-F ,  4-F ) :   0.1772 B(  3-F ,  5-F ) :   0.1772 B(  4-F ,  5-F ) :   0.2725 


-------
TIMINGS
-------

Total SCF time: 0 days 0 hours 3 min 25 sec 

Total time                  ....     205.353 sec
Sum of individual times     ....     163.180 sec  ( 79.5%)

Fock matrix formation       ....     159.752 sec  ( 77.8%)
  Split-RI-J                ....     100.338 sec  ( 62.8% of F)
  XC integration            ....      59.185 sec  ( 37.0% of F)
    Basis function eval.    ....      18.329 sec  ( 31.0% of XC)
    Density eval.           ....      15.980 sec  ( 27.0% of XC)
    XC-Functional eval.     ....       2.879 sec  (  4.9% of XC)
    XC-Potential eval.      ....      15.222 sec  ( 25.7% of XC)
Diagonalization             ....       0.279 sec  (  0.1%)
Density matrix formation    ....       0.222 sec  (  0.1%)
Population analysis         ....       0.031 sec  (  0.0%)
Initial guess               ....       0.190 sec  (  0.1%)
Orbital Transformation      ....       1.706 sec  (  0.8%)
Orbital Orthonormalization  ....       0.000 sec  (  0.0%)
DIIS solution               ....       0.411 sec  (  0.2%)
SOSCF solution              ....       0.000 sec  (  0.0%)
Grid generation             ....       0.585 sec  (  0.3%)

Maximum memory used throughout the entire SCF-calculation: 42.2 MB

-------------------------   --------------------
FINAL SINGLE POINT ENERGY      -839.534701089564
-------------------------   --------------------


                            ***************************************
                            *     ORCA property calculations      *
                            ***************************************

                                    ---------------------
                                    Active property flags
                                    ---------------------
   (+) Dipole Moment


------------------------------------------------------------------------------
                       ORCA ELECTRIC PROPERTIES CALCULATION
------------------------------------------------------------------------------

Dipole Moment Calculation                       ... on
Quadrupole Moment Calculation                   ... off
Polarizability Calculation                      ... off
GBWName                                         ... rough.gbw
Electron density                                ... rough.scfp
The origin for moment calculation is the CENTER OF MASS  = ( 0.000000,  0.000079  0.000000)

-------------
DIPOLE MOMENT
-------------
                                X             Y             Z
Electronic contribution:     -0.00056       0.00024      -0.00001
Nuclear contribution   :      0.00000       0.00024       0.00000
                        -----------------------------------------
Total Dipole Moment    :     -0.00056       0.00049      -0.00001
                        -----------------------------------------
Magnitude (a.u.)       :      0.00074
Magnitude (Debye)      :      0.00189



--------------------
Rotational spectrum 
--------------------
 
Rotational constants in cm-1:     0.033778     0.028217     0.028191 
Rotational constants in MHz :  1012.643638   845.915066   845.154482 

 Dipole components along the rotational axes: 
x,y,z [a.u.] :    -0.000008     0.000486    -0.000560 
x,y,z [Debye]:    -0.000020     0.001236    -0.001424 

 

Timings for individual modules:

Sum of individual times         ...      221.090 sec (=   3.685 min)
GTO integral calculation        ...        1.642 sec (=   0.027 min)   0.7 %
SCF iterations                  ...      219.448 sec (=   3.657 min)  99.3 %
                             ****ORCA TERMINATED NORMALLY****
TOTAL RUN TIME: 0 days 0 hours 3 minutes 41 seconds 441 msec
